                         Program Version 6.0.1  -  RELEASE   -
|  1> # Optimize file:
|  2> # HNDVDQJCIGZPNO-YFKPBYRVSA-N_59.out
|  3> %maxcore 700
|  4> %pal nprocs 16 end
|  5> ! OPT FREQ B97-3c defgrid3 SlowConv xyzfile
|  6> * xyz 1 2
|  7>    N        0.99923        -1.09083         1.45873
|  8>    C        1.38012        -0.90869         0.06443
|  9>    C        0.16300        -1.10759        -0.86023
| 10>    C       -1.09114        -0.41839        -0.41753
| 11>    C       -2.37265        -0.90312        -0.34518
| 12>    N       -3.14064         0.14123         0.11436
| 13>    C       -2.32207         1.19899         0.31066
| 14>    N       -1.08557         0.89177        -0.00180
| 15>    C        2.18259         0.38915        -0.17389
| 16>    O        3.37719         0.35132        -0.32351
| 17>    O        1.52840         1.54237        -0.13432
| 18>    H        0.43604        -0.30438         1.77967
| 19>    H        1.83129        -1.11183         2.04463
| 20>    H        2.10418        -1.69571        -0.18814
| 21>    H        0.42825        -0.78252        -1.88046
| 22>    H       -0.04577        -2.18544        -0.91333
| 23>    H       -2.78935        -1.88010        -0.57051
| 24>    H       -4.13740         0.12134         0.28257
| 25>    H       -2.67007         2.16183         0.67993
| 26>    H        0.54784         1.42997        -0.04039
| 27> *
| 28>
| 29>                          ****END OF INPUT****
 Total Charge           Charge          ....    1
 Multiplicity           Mult            ....    2
 Number of Electrons    NEL             ....   81
 Basis Dimension        Dim             ....  246

ORBITAL ENERGIES
----------------
                 SPIN UP ORBITALS
  NO   OCC          E(Eh)            E(eV)
   0   1.0000     -18.947741      -515.5942
   1   1.0000     -18.939645      -515.3739
   2   1.0000     -14.233217      -387.3055
   3   1.0000     -14.200307      -386.4100
   4   1.0000     -14.168020      -385.5314
   5   1.0000     -10.198772      -277.5227
   6   1.0000     -10.139549      -275.9112
   7   1.0000     -10.136012      -275.8149
   8   1.0000     -10.116292      -275.2783
   9   1.0000     -10.112188      -275.1666
  10   1.0000     -10.089642      -274.5531
  11   1.0000      -1.200300       -32.6618
  12   1.0000      -1.138032       -30.9674
  13   1.0000      -1.125088       -30.6152
  14   1.0000      -1.034513       -28.1505
  15   1.0000      -0.997969       -27.1561
  16   1.0000      -0.905226       -24.6325
  17   1.0000      -0.861138       -23.4328
  18   1.0000      -0.791952       -21.5501
  19   1.0000      -0.755311       -20.5531
  20   1.0000      -0.730152       -19.8685
  21   1.0000      -0.710855       -19.3434
  22   1.0000      -0.687998       -18.7214
  23   1.0000      -0.666385       -18.1333
  24   1.0000      -0.658125       -17.9085
  25   1.0000      -0.602260       -16.3883
  26   1.0000      -0.596973       -16.2445
  27   1.0000      -0.586721       -15.9655
  28   1.0000      -0.583241       -15.8708
  29   1.0000      -0.577168       -15.7055
  30   1.0000      -0.562617       -15.3096
  31   1.0000      -0.536158       -14.5896
  32   1.0000      -0.526308       -14.3216
  33   1.0000      -0.524358       -14.2685
  34   1.0000      -0.493502       -13.4289
  35   1.0000      -0.466085       -12.6828
  36   1.0000      -0.453246       -12.3334
  37   1.0000      -0.443224       -12.0607
  38   1.0000      -0.432698       -11.7743
  39   1.0000      -0.412796       -11.2328
  40   1.0000      -0.396597       -10.7919
  41   0.0000      -0.209594        -5.7033
  42   0.0000      -0.197443        -5.3727
  43   0.0000      -0.172388        -4.6909
  44   0.0000      -0.136693        -3.7196
  45   0.0000      -0.124209        -3.3799

                 SPIN DOWN ORBITALS
  NO   OCC          E(Eh)            E(eV)
   0   1.0000     -18.947118      -515.5773
   1   1.0000     -18.934596      -515.2366
   2   1.0000     -14.233256      -387.3066
   3   1.0000     -14.197531      -386.3345
   4   1.0000     -14.168225      -385.5370
   5   1.0000     -10.198716      -277.5212
   6   1.0000     -10.139189      -275.9014
   7   1.0000     -10.135593      -275.8035
   8   1.0000     -10.115883      -275.2672
   9   1.0000     -10.111884      -275.1584
  10   1.0000     -10.089493      -274.5491
  11   1.0000      -1.192130       -32.4395
  12   1.0000      -1.135646       -30.9025
  13   1.0000      -1.115547       -30.3556
  14   1.0000      -1.025545       -27.9065
  15   1.0000      -0.996833       -27.1252
  16   1.0000      -0.900555       -24.5053
  17   1.0000      -0.855034       -23.2667
  18   1.0000      -0.786425       -21.3997
  19   1.0000      -0.753376       -20.5004
  20   1.0000      -0.726595       -19.7717
  21   1.0000      -0.708492       -19.2790
  22   1.0000      -0.683813       -18.6075
  23   1.0000      -0.660837       -17.9823
  24   1.0000      -0.652922       -17.7669
  25   1.0000      -0.598853       -16.2956
  26   1.0000      -0.593630       -16.1535
  27   1.0000      -0.579556       -15.7705
  28   1.0000      -0.575221       -15.6526
  29   1.0000      -0.574788       -15.6408
  30   1.0000      -0.559051       -15.2126
  31   1.0000      -0.533742       -14.5239
  32   1.0000      -0.523781       -14.2528
  33   1.0000      -0.519088       -14.1251
  34   1.0000      -0.488493       -13.2926
  35   1.0000      -0.448452       -12.2030
  36   1.0000      -0.445581       -12.1249
  37   1.0000      -0.440646       -11.9906
  38   1.0000      -0.422852       -11.5064
  39   1.0000      -0.385294       -10.4844
  40   0.0000      -0.384875       -10.4730
  41   0.0000      -0.204592        -5.5672
  42   0.0000      -0.190724        -5.1899
  43   0.0000      -0.164897        -4.4871
  44   0.0000      -0.136093        -3.7033

MULLIKEN ATOMIC CHARGES AND SPIN POPULATIONS
--------------------------------------------
   0 N :   -0.439037    0.290533
   1 C :   -0.269081    0.047895
   2 C :   -0.314597    0.020399
   3 C :    0.029665    0.099750
   4 C :   -0.063197    0.122643
   5 N :   -0.276186   -0.007588
   6 C :   -0.017199    0.093519
   7 N :   -0.260745   -0.024203
   8 C :    0.421606    0.002874
   9 O :   -0.201759    0.331849
  10 O :   -0.412514    0.034529
  11 H :    0.359024   -0.006515
  12 H :    0.369038   -0.004920
  13 H :    0.261943   -0.001532
  14 H :    0.246730    0.006958
  15 H :    0.243354    0.002988
  16 H :    0.258153   -0.003930
  17 H :    0.394613   -0.000375
  18 H :    0.251317   -0.002971
  19 H :    0.418871   -0.001903
Sum of atomic charges         :    1.0000000

LOEWDIN ATOMIC CHARGES AND SPIN POPULATIONS
-------------------------------------------
   0 N :   -0.321162    0.269612
   1 C :   -0.050660    0.067112
   2 C :   -0.247323    0.023299
   3 C :   -0.005304    0.091555
   4 C :   -0.047177    0.115084
   5 N :   -0.153039    0.003647
   6 C :    0.040380    0.083791
   7 N :   -0.201742   -0.013515
   8 C :    0.381288    0.023990
   9 O :   -0.225489    0.311744
  10 O :   -0.484217    0.032670
  11 H :    0.290725   -0.003129
  12 H :    0.300598   -0.002456
  13 H :    0.210460   -0.001984
  14 H :    0.207538    0.005779
  15 H :    0.200427    0.000453
  16 H :    0.205162   -0.003559
  17 H :    0.323620   -0.000298
  18 H :    0.199852   -0.002903
  19 H :    0.376063   -0.000890

  Mayer bond orders larger than 0.100000
B(  0-N ,  1-C ) :   1.0635 B(  0-N ,  2-C ) :  -0.1061 B(  0-N ,  9-O ) :   0.1339
B(  0-N , 11-H ) :   0.8220 B(  0-N , 12-H ) :   0.8369 B(  1-C ,  2-C ) :   0.7913
B(  1-C ,  8-C ) :   0.8157 B(  1-C , 13-H ) :   0.9121 B(  2-C ,  3-C ) :   0.9238
B(  2-C , 14-H ) :   0.9387 B(  2-C , 15-H ) :   0.9314 B(  3-C ,  4-C ) :   1.4731
B(  3-C ,  7-N ) :   1.2646 B(  4-C ,  5-N ) :   1.2824 B(  4-C , 16-H ) :   0.8801
B(  5-N ,  6-C ) :   1.2609 B(  5-N , 17-H ) :   0.7967 B(  6-C ,  7-N ) :   1.5756
B(  6-C , 18-H ) :   0.9082 B(  7-N , 19-H ) :   0.1914 B(  8-C ,  9-O ) :   1.8844
B(  8-C , 10-O ) :   1.2660 B( 10-O , 19-H ) :   0.6062

Dispersion correction           -0.046490321
FINAL SINGLE POINT ENERGY      -548.239812822761
Dispersion correction             ... done (  0.0 sec)
Dispersion correction           -0.046288704
FINAL SINGLE POINT ENERGY      -548.245966465664
Dispersion correction             ... done (  0.1 sec)
Dispersion correction           -0.046398408
FINAL SINGLE POINT ENERGY      -548.249876308304
Dispersion correction             ... done (  0.1 sec)
FINAL SINGLE POINT ENERGY      -548.251200964407
FINAL SINGLE POINT ENERGY      -548.253221554948
FINAL SINGLE POINT ENERGY      -548.254091359369
FINAL SINGLE POINT ENERGY      -548.255661003230
FINAL SINGLE POINT ENERGY      -548.257318898719
FINAL SINGLE POINT ENERGY      -548.259496274647
FINAL SINGLE POINT ENERGY      -548.263282401201
FINAL SINGLE POINT ENERGY      -548.283598790529
FINAL SINGLE POINT ENERGY      -548.283704275812
FINAL SINGLE POINT ENERGY      -548.283805287736
FINAL SINGLE POINT ENERGY      -548.283904987039
FINAL SINGLE POINT ENERGY      -548.283964489344
FINAL SINGLE POINT ENERGY      -548.284008202486
FINAL SINGLE POINT ENERGY      -548.284040932687
Dispersion correction           -0.041439120
FINAL SINGLE POINT ENERGY      -548.284072786019
Dispersion correction             ... done (  0.0 sec)
Dispersion correction           -0.041438199
FINAL SINGLE POINT ENERGY      -548.284096030576
Dispersion correction             ... done (  0.0 sec)

CARTESIAN COORDINATES (ANGSTROEM)
---------------------------------
  N      1.447667   -1.088348    1.089638
  C      1.150822   -1.371002   -0.234966
  C     -0.222163   -1.773124   -0.612327
  C     -1.259188   -0.724015   -0.344959
  C     -2.612673   -0.791827   -0.203489
  N     -3.063700    0.496705   -0.027439
  C     -2.033751    1.340350   -0.046453
  N     -0.941114    0.610270   -0.239652
  C      2.587258    1.825021    0.465250
  O      3.610676    1.448805    0.857192
  O      1.556505    2.208046    0.062607
  H      0.867395   -1.531329    1.788701
  H      2.422213   -1.156828    1.339368
  H      1.970102   -1.468664   -0.926654
  H     -0.236981   -2.007856   -1.676685
  H     -0.549248   -2.689985   -0.102764
  H     -3.277220   -1.634293   -0.221610
  H     -4.025527    0.769070    0.102680
  H     -2.075781    2.405313    0.081031
  H      0.008180    0.973062   -0.263777

Dispersion correction           -0.041402131
FINAL SINGLE POINT ENERGY      -548.284116275926
Dispersion correction             ... done (  0.1 sec)
                             ****ORCA TERMINATED NORMALLY****
TOTAL RUN TIME: 0 days 0 hours 34 minutes 2 seconds 968 msec
