                         Program Version 6.0.1  -  RELEASE   -
|  1> # Optimize file:
|  2> # HNDVDQJCIGZPNO-YFKPBYRVSA-N_68.out
|  3> %maxcore 700
|  4> %pal nprocs 16 end
|  5> ! OPT FREQ B97-3c defgrid3 SlowConv xyzfile
|  6> * xyz 1 2
|  7>    N       -2.27829         1.69362        -0.48742
|  8>    C       -1.31380         0.61856        -0.38010
|  9>    C       -0.17894         1.04036         0.58130
| 10>    C        1.16408         0.46642         0.25464
| 11>    C        2.39000         1.08240         0.21313
| 12>    N        3.28695         0.10038        -0.13830
| 13>    C        2.59488        -1.04976        -0.30162
| 14>    N        1.31812        -0.85895        -0.07186
| 15>    C       -1.97915        -0.71929         0.03003
| 16>    O       -3.16702        -0.78323         0.21907
| 17>    O       -1.19863        -1.77888         0.14675
| 18>    H       -2.77685         1.76311         0.40079
| 19>    H       -3.00480         1.41267        -1.14428
| 20>    H       -0.86695         0.45901        -1.37758
| 21>    H       -0.11862         2.13600         0.53036
| 22>    H       -0.45341         0.78438         1.61971
| 23>    H        2.68958         2.10987         0.39669
| 24>    H        4.28372         0.21734        -0.26048
| 25>    H        3.06134        -1.99049        -0.58789
| 26>    H       -0.23872        -1.57246        -0.00516
| 27> *
| 28>
| 29>                          ****END OF INPUT****
 Total Charge           Charge          ....    1
 Multiplicity           Mult            ....    2
 Number of Electrons    NEL             ....   81
 Basis Dimension        Dim             ....  246

ORBITAL ENERGIES
----------------
                 SPIN UP ORBITALS
  NO   OCC          E(Eh)            E(eV)
   0   1.0000     -18.939816      -515.3786
   1   1.0000     -18.909365      -514.5500
   2   1.0000     -14.240479      -387.5031
   3   1.0000     -14.184798      -385.9880
   4   1.0000     -14.171785      -385.6339
   5   1.0000     -10.185750      -277.1684
   6   1.0000     -10.148033      -276.1420
   7   1.0000     -10.131686      -275.6972
   8   1.0000     -10.128801      -275.6187
   9   1.0000     -10.123435      -275.4727
  10   1.0000     -10.090012      -274.5632
  11   1.0000      -1.184835       -32.2410
  12   1.0000      -1.145740       -31.1772
  13   1.0000      -1.109838       -30.2002
  14   1.0000      -1.024026       -27.8652
  15   1.0000      -1.004470       -27.3330
  16   1.0000      -0.910571       -24.7779
  17   1.0000      -0.861390       -23.4396
  18   1.0000      -0.786810       -21.4102
  19   1.0000      -0.761332       -20.7169
  20   1.0000      -0.724770       -19.7220
  21   1.0000      -0.713316       -19.4103
  22   1.0000      -0.696350       -18.9487
  23   1.0000      -0.666691       -18.1416
  24   1.0000      -0.635755       -17.2998
  25   1.0000      -0.610886       -16.6230
  26   1.0000      -0.597793       -16.2668
  27   1.0000      -0.585691       -15.9375
  28   1.0000      -0.580502       -15.7963
  29   1.0000      -0.568545       -15.4709
  30   1.0000      -0.554476       -15.0880
  31   1.0000      -0.535576       -14.5738
  32   1.0000      -0.530913       -14.4469
  33   1.0000      -0.507540       -13.8109
  34   1.0000      -0.499969       -13.6049
  35   1.0000      -0.450148       -12.2492
  36   1.0000      -0.444670       -12.1001
  37   1.0000      -0.437283       -11.8991
  38   1.0000      -0.421727       -11.4758
  39   1.0000      -0.408355       -11.1119
  40   1.0000      -0.404966       -11.0197
  41   0.0000      -0.205134        -5.5820
  42   0.0000      -0.192075        -5.2266
  43   0.0000      -0.178113        -4.8467
  44   0.0000      -0.132091        -3.5944
  45   0.0000      -0.122247        -3.3265

                 SPIN DOWN ORBITALS
  NO   OCC          E(Eh)            E(eV)
   0   1.0000     -18.938933      -515.3546
   1   1.0000     -18.906590      -514.4745
   2   1.0000     -14.240538      -387.5047
   3   1.0000     -14.181913      -385.9095
   4   1.0000     -14.172102      -385.6425
   5   1.0000     -10.185583      -277.1638
   6   1.0000     -10.147531      -276.1284
   7   1.0000     -10.131308      -275.6869
   8   1.0000     -10.128193      -275.6021
   9   1.0000     -10.123004      -275.4609
  10   1.0000     -10.089924      -274.5608
  11   1.0000      -1.179817       -32.1045
  12   1.0000      -1.142595       -31.0916
  13   1.0000      -1.103165       -30.0187
  14   1.0000      -1.015946       -27.6453
  15   1.0000      -1.002891       -27.2900
  16   1.0000      -0.904830       -24.6217
  17   1.0000      -0.854781       -23.2598
  18   1.0000      -0.781194       -21.2574
  19   1.0000      -0.758936       -20.6517
  20   1.0000      -0.721125       -19.6228
  21   1.0000      -0.710662       -19.3381
  22   1.0000      -0.692427       -18.8419
  23   1.0000      -0.659937       -17.9578
  24   1.0000      -0.631127       -17.1738
  25   1.0000      -0.606874       -16.5139
  26   1.0000      -0.592082       -16.1114
  27   1.0000      -0.582853       -15.8602
  28   1.0000      -0.574531       -15.6338
  29   1.0000      -0.564217       -15.3531
  30   1.0000      -0.550323       -14.9751
  31   1.0000      -0.531656       -14.4671
  32   1.0000      -0.528402       -14.3786
  33   1.0000      -0.501712       -13.6523
  34   1.0000      -0.496384       -13.5073
  35   1.0000      -0.447824       -12.1859
  36   1.0000      -0.440551       -11.9880
  37   1.0000      -0.433332       -11.7916
  38   1.0000      -0.399959       -10.8834
  39   1.0000      -0.391934       -10.6651
  40   0.0000      -0.385953       -10.5023
  41   0.0000      -0.195253        -5.3131
  42   0.0000      -0.188191        -5.1209
  43   0.0000      -0.168240        -4.5780
  44   0.0000      -0.131733        -3.5846

MULLIKEN ATOMIC CHARGES AND SPIN POPULATIONS
--------------------------------------------
   0 N :   -0.455582    0.296198
   1 C :   -0.250617    0.042720
   2 C :   -0.353124    0.015106
   3 C :    0.103163    0.126204
   4 C :   -0.061967    0.182412
   5 N :   -0.274997   -0.011471
   6 C :   -0.003550    0.130063
   7 N :   -0.244345   -0.038692
   8 C :    0.425686    0.030755
   9 O :   -0.262415    0.195778
  10 O :   -0.422573    0.045330
  11 H :    0.361049   -0.005818
  12 H :    0.365662   -0.004160
  13 H :    0.251851    0.005330
  14 H :    0.248667   -0.000033
  15 H :    0.230480    0.003132
  16 H :    0.263164   -0.005637
  17 H :    0.397095   -0.000458
  18 H :    0.256262   -0.004281
  19 H :    0.426090   -0.002477
Sum of atomic charges         :    1.0000000

LOEWDIN ATOMIC CHARGES AND SPIN POPULATIONS
-------------------------------------------
   0 N :   -0.308004    0.275601
   1 C :   -0.058096    0.063486
   2 C :   -0.253629    0.015229
   3 C :    0.016613    0.117366
   4 C :   -0.027089    0.167848
   5 N :   -0.152295    0.004698
   6 C :    0.059152    0.115943
   7 N :   -0.186148   -0.022381
   8 C :    0.376246    0.037327
   9 O :   -0.306976    0.185638
  10 O :   -0.480248    0.047348
  11 H :    0.297894   -0.002760
  12 H :    0.301069   -0.001518
  13 H :    0.205125    0.003784
  14 H :    0.199842   -0.000271
  15 H :    0.202611    0.003142
  16 H :    0.208175   -0.005317
  17 H :    0.325231   -0.000391
  18 H :    0.202898   -0.004169
  19 H :    0.377629   -0.000603

  Mayer bond orders larger than 0.100000
B(  0-N ,  1-C ) :   1.1699 B(  0-N , 11-H ) :   0.8245 B(  0-N , 12-H ) :   0.8471
B(  1-C ,  2-C ) :   0.7912 B(  1-C ,  8-C ) :   0.7728 B(  1-C , 13-H ) :   0.9233
B(  2-C ,  3-C ) :   0.9769 B(  2-C , 14-H ) :   0.9409 B(  2-C , 15-H ) :   0.8932
B(  3-C ,  4-C ) :   1.4359 B(  3-C ,  7-N ) :   1.2439 B(  4-C ,  5-N ) :   1.2944
B(  4-C , 16-H ) :   0.8769 B(  5-N ,  6-C ) :   1.2443 B(  5-N , 17-H ) :   0.7941
B(  6-C ,  7-N ) :   1.5875 B(  6-C , 18-H ) :   0.9052 B(  7-N , 19-H ) :   0.1903
B(  8-C ,  9-O ) :   1.9743 B(  8-C , 10-O ) :   1.2697 B( 10-O , 19-H ) :   0.6107

Dispersion correction           -0.045615123
FINAL SINGLE POINT ENERGY      -548.236250478645
Dispersion correction             ... done (  0.1 sec)
Dispersion correction           -0.045537297
FINAL SINGLE POINT ENERGY      -548.242726208668
Dispersion correction             ... done (  0.1 sec)
Dispersion correction           -0.045625192
FINAL SINGLE POINT ENERGY      -548.245935508814
Dispersion correction             ... done (  0.1 sec)
FINAL SINGLE POINT ENERGY      -548.247928670294
FINAL SINGLE POINT ENERGY      -548.249185576747
FINAL SINGLE POINT ENERGY      -548.249993042423
FINAL SINGLE POINT ENERGY      -548.250231970097
FINAL SINGLE POINT ENERGY      -548.250471216328
FINAL SINGLE POINT ENERGY      -548.250671191283
FINAL SINGLE POINT ENERGY      -548.252430841560
FINAL SINGLE POINT ENERGY      -548.284311803024
FINAL SINGLE POINT ENERGY      -548.284344183323
FINAL SINGLE POINT ENERGY      -548.284377796278
FINAL SINGLE POINT ENERGY      -548.284401411663
FINAL SINGLE POINT ENERGY      -548.284414591529
FINAL SINGLE POINT ENERGY      -548.284422794241
FINAL SINGLE POINT ENERGY      -548.284429426353
Dispersion correction           -0.040945565
FINAL SINGLE POINT ENERGY      -548.284436791473
Dispersion correction             ... done (  0.0 sec)
Dispersion correction           -0.040948461
FINAL SINGLE POINT ENERGY      -548.284443532009
Dispersion correction             ... done (  0.1 sec)

CARTESIAN COORDINATES (ANGSTROEM)
---------------------------------
  N     -2.395403    1.647330   -0.139602
  C     -1.158642    1.106695   -0.412452
  C     -0.028533    1.527584    0.471474
  C      1.196932    0.731976    0.227296
  C      2.500299    1.089742    0.071150
  N      3.217034   -0.069627   -0.121919
  C      2.395316   -1.116828   -0.092662
  N      1.171621   -0.643379    0.119403
  C     -2.327645   -1.919394   -0.243501
  O     -3.386361   -1.556860   -0.545064
  O     -1.271046   -2.321679    0.066202
  H     -2.675644    1.717572    0.826056
  H     -3.155152    1.370206   -0.738792
  H     -0.947215    0.977543   -1.466894
  H      0.225633    2.588182    0.351190
  H     -0.317738    1.419339    1.523101
  H      2.965667    2.056666    0.081640
  H      4.212420   -0.125586   -0.269414
  H      2.669805   -2.147017   -0.217563
  H      0.322141   -1.201406    0.148131

Dispersion correction           -0.040950473
FINAL SINGLE POINT ENERGY      -548.284450833805
Dispersion correction             ... done (  0.0 sec)
                             ****ORCA TERMINATED NORMALLY****
TOTAL RUN TIME: 0 days 0 hours 30 minutes 59 seconds 76 msec
