 Gaussian 16, Revision C.01,

 ------------------------------------------------------
 #N OPT FREQ=NORAMAN Integral(Ultrafine) wB97XD def2SVP
 ------------------------------------------------------

 --------------
 MAHT26_clust-3
 --------------
 Symbolic Z-matrix:
 Charge =  0 Multiplicity = 1

 SCF Done:  E(RwB97XD) =  -1124.39092918     A.U. after   17 cycles
 SCF Done:  E(RwB97XD) =  -1124.40275479     A.U. after   14 cycles
 SCF Done:  E(RwB97XD) =  -1124.40218467     A.U. after   16 cycles
 SCF Done:  E(RwB97XD) =  -1124.40115890     A.U. after   15 cycles
 SCF Done:  E(RwB97XD) =  -1124.39994483     A.U. after   14 cycles
 SCF Done:  E(RwB97XD) =  -1124.40292656     A.U. after   12 cycles
 SCF Done:  E(RwB97XD) =  -1124.40221428     A.U. after   16 cycles
 SCF Done:  E(RwB97XD) =  -1124.40353090     A.U. after   15 cycles
 SCF Done:  E(RwB97XD) =  -1124.40393127     A.U. after   13 cycles
 SCF Done:  E(RwB97XD) =  -1124.40393141     A.U. after   14 cycles
 SCF Done:  E(RwB97XD) =  -1124.40398682     A.U. after   14 cycles
 SCF Done:  E(RwB97XD) =  -1124.40400379     A.U. after   12 cycles
 SCF Done:  E(RwB97XD) =  -1124.40400650     A.U. after   10 cycles
 SCF Done:  E(RwB97XD) =  -1124.40400667     A.U. after    9 cycles
 Optimization completed.
    -- Stationary point found.
 Normal termination of Gaussian 16 at Mon Oct  9 21:17:47 2023.

 --------------------------------------------------------------------
 #N Geom=AllCheck Guess=TCheck SCRF=Check GenChk RwB97XD/def2SVP Freq
 --------------------------------------------------------------------

 Structure from the checkpoint file:  "MAHT26_clust-3.chk"
 --------------
 MAHT26_clust-3
 --------------
 Charge =  0 Multiplicity = 1

 SCF Done:  E(RwB97XD) =  -1124.40400667     A.U. after    1 cycles

                      1                      2                      3
                      A                      A                      A
 Frequencies --     26.6247                38.9829                40.6909
 Red. masses --      5.8642                 4.8644                 9.5511
 Frc consts  --      0.0024                 0.0044                 0.0093
 IR Inten    --      0.0679                 0.6462                 1.4910

                      4                      5                      6
                      A                      A                      A
 Frequencies --     49.2235                77.2725               120.1147
 Red. masses --      5.4492                 7.5017                 5.9106
 Frc consts  --      0.0078                 0.0264                 0.0502
 IR Inten    --      0.3958                 2.6917                 0.0686

                      7                      8                      9
                      A                      A                      A
 Frequencies --    156.6041               189.2344               220.4122
 Red. masses --      6.8072                 3.7117                 8.1235
 Frc consts  --      0.0984                 0.0783                 0.2325
 IR Inten    --      4.1106                 0.5806                 0.0110

                     10                     11                     12
                      A                      A                      A
 Frequencies --    256.4744               307.4723               377.2470
 Red. masses --      6.7346                 7.4727                 6.7054
 Frc consts  --      0.2610                 0.4162                 0.5622
 IR Inten    --      0.5746                 0.0785                 3.1885

                     13                     14                     15
                      A                      A                      A
 Frequencies --    408.6659               416.4059               419.2945
 Red. masses --      2.2851                 3.7308                 3.8841
 Frc consts  --      0.2249                 0.3811                 0.4023
 IR Inten    --      2.5820                 2.0378                 1.6719

                     16                     17                     18
                      A                      A                      A
 Frequencies --    468.3796               499.9877               505.6956
 Red. masses --      9.2879                 2.9845                 3.4809
 Frc consts  --      1.2005                 0.4396                 0.5245
 IR Inten    --      1.1400                16.9505                 9.8480

                     19                     20                     21
                      A                      A                      A
 Frequencies --    527.7654               542.4457               561.5381
 Red. masses --      6.7740                 3.7580                 1.9509
 Frc consts  --      1.1117                 0.6515                 0.3624
 IR Inten    --      0.1041                 4.0123                36.7239

                     22                     23                     24
                      A                      A                      A
 Frequencies --    620.0946               626.2227               660.1379
 Red. masses --      6.1412                 4.0152                 6.3715
 Frc consts  --      1.3913                 0.9277                 1.6359
 IR Inten    --     29.1444                84.1886                 1.4800

                     25                     26                     27
                      A                      A                      A
 Frequencies --    676.5856               691.7978               774.7812
 Red. masses --      3.1094                 2.2296                 1.2882
 Frc consts  --      0.8386                 0.6287                 0.4556
 IR Inten    --     20.0942                81.6893                30.7088

                     28                     29                     30
                      A                      A                      A
 Frequencies --    794.2436               810.9926               853.1166
 Red. masses --      4.6259                 2.3785                 1.5331
 Frc consts  --      1.7193                 0.9217                 0.6574
 IR Inten    --      1.4815                 0.3001                16.1522

                     31                     32                     33
                      A                      A                      A
 Frequencies --    858.1516               871.8867               902.2419
 Red. masses --      3.0853                 5.6842                 1.5486
 Frc consts  --      1.3387                 2.5459                 0.7427
 IR Inten    --     18.5843                 1.7435                 8.0153

                     34                     35                     36
                      A                      A                      A
 Frequencies --    926.7675               941.2819               953.9301
 Red. masses --      3.2209                 3.3259                 1.7344
 Frc consts  --      1.6299                 1.7362                 0.9299
 IR Inten    --      6.7757                 6.4541                 3.9933

                     37                     38                     39
                      A                      A                      A
 Frequencies --    961.2303              1005.2484              1020.9333
 Red. masses --      4.8209                 1.3620                 1.3997
 Frc consts  --      2.6244                 0.8109                 0.8596
 IR Inten    --      9.3491                 0.2274                10.0862

                     40                     41                     42
                      A                      A                      A
 Frequencies --   1030.8681              1038.7158              1056.6376
 Red. masses --      2.8638                 1.3633                 2.1669
 Frc consts  --      1.7931                 0.8666                 1.4254
 IR Inten    --    168.0589                 0.9255                 3.6938

                     43                     44                     45
                      A                      A                      A
 Frequencies --   1119.0177              1158.5196              1160.5039
 Red. masses --      2.0991                 1.3387                 1.3729
 Frc consts  --      1.5486                 1.0586                 1.0894
 IR Inten    --      3.6042                51.5783                19.3822

                     46                     47                     48
                      A                      A                      A
 Frequencies --   1168.7721              1178.2300              1229.2279
 Red. masses --      1.2744                 1.1358                 2.0600
 Frc consts  --      1.0257                 0.9290                 1.8340
 IR Inten    --      2.8811                 1.0788                 2.4029

                     49                     50                     51
                      A                      A                      A
 Frequencies --   1249.2075              1262.0524              1289.3111
 Red. masses --      1.5301                 1.4410                 1.7171
 Frc consts  --      1.4068                 1.3523                 1.6817
 IR Inten    --    161.1559                 1.0023                 4.9386

                     52                     53                     54
                      A                      A                      A
 Frequencies --   1327.6548              1378.4921              1398.8445
 Red. masses --      1.8124                 2.1563                 1.3149
 Frc consts  --      1.8822                 2.4141                 1.5160
 IR Inten    --     42.7095                 5.3650                42.8689

                     55                     56                     57
                      A                      A                      A
 Frequencies --   1417.7428              1443.0741              1450.8198
 Red. masses --      3.8262                 2.3392                 4.6286
 Frc consts  --      4.5311                 2.8700                 5.7402
 IR Inten    --      5.5214               201.6443                 2.6157

                     58                     59                     60
                      A                      A                      A
 Frequencies --   1483.3349              1504.7243              1569.4076
 Red. masses --      3.2445                 2.6213                 3.9799
 Frc consts  --      4.2060                 3.4968                 5.7756
 IR Inten    --      0.2007                 0.5504                10.6879

                     61                     62                     63
                      A                      A                      A
 Frequencies --   1661.2205              1678.8054              1726.7776
 Red. masses --      7.4808                 6.0464                 6.9040
 Frc consts  --     12.1633                10.0403                12.1290
 IR Inten    --      0.5432                 9.9815                 0.4272

                     64                     65                     66
                      A                      A                      A
 Frequencies --   1864.0177              1920.0013              3104.6087
 Red. masses --     12.5892                10.6603                 1.0628
 Frc consts  --     25.7721                23.1537                 6.0354
 IR Inten    --    413.9486               359.5984                 0.4163

                     67                     68                     69
                      A                      A                      A
 Frequencies --   3175.5106              3201.7051              3205.1325
 Red. masses --      1.1049                 1.0873                 1.0895
 Frc consts  --      6.5644                 6.5667                 6.5940
 IR Inten    --      0.3245                 1.1393                 2.5491

                     70                     71                     72
                      A                      A                      A
 Frequencies --   3206.4377              3208.8312              3218.7005
 Red. masses --      1.0907                 1.0934                 1.0966
 Frc consts  --      6.6068                 6.6333                 6.6933
 IR Inten    --      0.3052                 0.3251                12.5891

                     73                     74                     75
                      A                      A                      A
 Frequencies --   3224.2806              3229.6678              3842.3428
 Red. masses --      1.0982                 1.1004                 1.0645
 Frc consts  --      6.7269                 6.7624                 9.2592
 IR Inten    --      3.3413                11.4630               119.2233

 - Thermochemistry -
 -------------------
 Temperature   298.150 Kelvin.  Pressure   1.00000 Atm.
 Atom     1 has atomic number  8 and mass  15.99491

 Molecular mass:   246.03507 amu.
 Principal axes and moments of inertia in atomic units:
                           1         2         3
     Eigenvalues --  2317.125448150.424868842.78595
           X            0.99998   0.00405  -0.00392
           Y           -0.00411   0.99987  -0.01527
           Z            0.00386   0.01529   0.99988
 This molecule is an asymmetric top.
 Rotational symmetry number  1.
 Warning -- assumption of classical behavior for rotation
           may cause significant error
 Rotational temperatures (Kelvin)      0.03738     0.01063     0.00979
 Rotational constants (GHZ):           0.77887     0.22143     0.20409
 Zero-point vibrational energy     535588.3 (Joules/Mol)
                                  128.00868 (Kcal/Mol)
 Warning -- explicit consideration of  22 degrees of freedom as
           vibrations may cause significant error
 Vibrational temperatures:     38.31    56.09    58.55    70.82   111.18
          (Kelvin)            172.82   225.32   272.27   317.12   369.01
                              442.38   542.77   587.98   599.12   603.27
                              673.89   719.37   727.58   759.34   780.46
                              807.93   892.18   900.99   949.79   973.46
                              995.34  1114.74  1142.74  1166.84  1227.44
                             1234.69  1254.45  1298.12  1333.41  1354.29
                             1372.49  1383.00  1446.33  1468.90  1483.19
                             1494.48  1520.27  1610.02  1666.85  1669.71
                             1681.60  1695.21  1768.58  1797.33  1815.81
                             1855.03  1910.20  1983.34  2012.63  2039.82
                             2076.26  2087.41  2134.19  2164.96  2258.03
                             2390.13  2415.43  2484.45  2681.91  2762.45
                             4466.84  4568.85  4606.54  4611.47  4613.35
                             4616.79  4630.99  4639.02  4646.77  5528.27

 Zero-point correction=                           0.203995 (Hartree/Particle)
 Thermal correction to Energy=                    0.218569
 Thermal correction to Enthalpy=                  0.219513
 Thermal correction to Gibbs Free Energy=         0.159529
 Sum of electronic and zero-point Energies=          -1124.200012
 Sum of electronic and thermal Energies=             -1124.185438
 Sum of electronic and thermal Enthalpies=           -1124.184494
 Sum of electronic and thermal Free Energies=        -1124.244478

                     E (Thermal)             CV                S
                      KCal/Mol        Cal/Mol-Kelvin    Cal/Mol-Kelvin
 Total                  137.154             54.943            126.247
 Electronic               0.000              0.000              0.000
 Translational            0.889              2.981             42.402
 Rotational               0.889              2.981             33.479
 Vibrational            135.376             48.981             50.366
 Vibration     1          0.593              1.984              6.066
 Vibration     2          0.594              1.981              5.310
 Vibration     3          0.594              1.981              5.225
 Vibration     4          0.595              1.978              4.848
 Vibration     5          0.599              1.964              3.959
 Vibration     6          0.609              1.932              3.099
 Vibration     7          0.620              1.895              2.590
 Vibration     8          0.633              1.855              2.235
 Vibration     9          0.647              1.810              1.956
 Vibration    10          0.666              1.752              1.686
 Vibration    11          0.697              1.660              1.376
 Vibration    12          0.748              1.519              1.050
 Vibration    13          0.773              1.451              0.931
 Vibration    14          0.780              1.435              0.904
 Vibration    15          0.782              1.428              0.894
 Vibration    16          0.826              1.320              0.742
 Vibration    17          0.855              1.250              0.658
 Vibration    18          0.861              1.237              0.644
 Vibration    19          0.883              1.189              0.592
 Vibration    20          0.898              1.156              0.560
 Vibration    21          0.917              1.115              0.521
 Vibration    22          0.980              0.989              0.416

 Optimization completed.
    -- Stationary point found.
 Normal termination of Gaussian 16 at Mon Oct  9 21:18:50 2023.

 ----------------------------------------------------------------------
 #N Guess=Read Geom=Check Integral(Ultrafine) Density Prop=(Potential,E
 FG) Volume Pop=NBO7 Pop=Hirshfeld Polar wB97XD def2TZVP
 ----------------------------------------------------------------------

 --------------
 MAHT26_clust-3
 --------------
 Structure from the checkpoint file:  "MAHT26_clust-3.chk"
 Charge =  0 Multiplicity = 1

 SCF Done:  E(RwB97XD) =  -1125.33600123     A.U. after   13 cycles

  Exact polarizability:     248.354      34.055     140.860      -1.958      -7.858     159.203
 Approx polarizability:     249.074      38.383     169.483      -0.764     -12.306     208.841

 Summary of Natural Population Analysis:

                                     Natural Population
             Natural    ---------------------------------------------
  Atom No    Charge        Core      Valence    Rydberg      Total
 --------------------------------------------------------------------
    O  1   -0.52014      1.99999     6.48949    0.03066     8.52014
    C  2    0.43726      1.99999     3.52072    0.04203     5.56274
    S  3    0.24154      9.99996     5.72351    0.03498    15.75846
    C  4   -0.20598      1.99999     4.18195    0.02405     6.20598
    C  5   -0.22128      1.99999     4.20230    0.01899     6.22128
    C  6   -0.17471      1.99999     4.15880    0.01592     6.17471
    C  7   -0.05204      1.99999     4.03456    0.01750     6.05204
    C  8   -0.06131      1.99999     4.04345    0.01788     6.06131
    C  9   -0.17809      1.99999     4.16220    0.01590     6.17809
    C 10   -0.20583      1.99999     4.18928    0.01656     6.20583
    C 11   -0.20076      1.99999     4.18425    0.01652     6.20076
    C 12   -0.18404      1.99999     4.16795    0.01610     6.18404
    C 13   -0.17151      1.99999     4.15313    0.01839     6.17151
    C 14   -0.62454      1.99999     4.60761    0.01694     6.62454
    C 15    0.79113      1.99999     3.16863    0.04025     5.20887
    O 16   -0.66295      1.99999     6.64074    0.02222     8.66295
    O 17   -0.57237      1.99999     6.54723    0.02515     8.57237
    H 18    0.22920      0.00000     0.76935    0.00144     0.77080
    H 19    0.21852      0.00000     0.78007    0.00141     0.78148
    H 20    0.21650      0.00000     0.78213    0.00137     0.78350
    H 21    0.21913      0.00000     0.77972    0.00115     0.78087
    H 22    0.21858      0.00000     0.78027    0.00114     0.78142
    H 23    0.21532      0.00000     0.78329    0.00139     0.78468
    H 24    0.22614      0.00000     0.77213    0.00173     0.77386
    H 25    0.26533      0.00000     0.73342    0.00126     0.73467
    H 26    0.26133      0.00000     0.73725    0.00142     0.73867
    H 27    0.49559      0.00000     0.50158    0.00283     0.50441
 ====================================================================
 * Total *  0.00000     41.99979    85.59501    0.40520   128.00000

 Normal termination of Gaussian 16 at Mon Oct  9 21:23:27 2023.
 Gaussian 16:  ES64L-G16RevC.01  3-Jul-2019

 ----------------------------------------------------------------------
 #N Guess=Read Geom=Check Integral(Ultrafine) Density Pop=(ChelpG,ReadR
 adii) NMR wB97XD def2TZVP
 ----------------------------------------------------------------------

 --------------
 MAHT26_clust-3
 --------------
 Structure from the checkpoint file:  "MAHT26_clust-3.chk"
 Charge =  0 Multiplicity = 1

                         Standard orientation:
 ---------------------------------------------------------------------
 Center     Atomic      Atomic             Coordinates (Angstroms)
 Number     Number       Type             X           Y           Z
 ---------------------------------------------------------------------
      1          8           0       -3.697056   -1.003423   -0.602368
      2          6           0       -2.558659   -0.737923   -0.343719
      3         16           0       -1.337833   -2.056734   -0.440977
      4          6           0        0.189024   -1.262500    0.029139
      5          6           0        0.564843   -1.214096    1.399011
      6          6           0        1.740831   -0.613051    1.769559
      7          6           0        2.608289   -0.040073    0.798641
      8          6           0        2.240216   -0.104842   -0.576747
      9          6           0        3.105828    0.461800   -1.552293
     10          6           0        4.280442    1.065752   -1.177507
     11          6           0        4.646534    1.130790    0.189673
     12          6           0        3.831254    0.590868    1.154000
     13          6           0        1.015998   -0.731243   -0.934326
     14          6           0       -2.079540    0.653461    0.042139
     15          6           0       -3.240874    1.617926    0.101117
     16          8           0       -3.933877    1.483233    1.235670
     17          8           0       -3.514873    2.414350   -0.752681
     18          1           0       -0.094347   -1.658300    2.147749
     19          1           0        2.026992   -0.572875    2.823321
     20          1           0        2.820401    0.409473   -2.605687
     21          1           0        4.938477    1.498846   -1.933597
     22          1           0        5.583740    1.613636    0.474186
     23          1           0        4.113217    0.639488    2.208529
     24          1           0        0.729505   -0.782600   -1.987672
     25          1           0       -1.357256    1.009645   -0.704668
     26          1           0       -1.566166    0.607559    1.013583
     27          1           0       -4.687897    2.088382    1.182801
 ---------------------------------------------------------------------

 SCF Done:  E(RwB97XD) =  -1125.33600123     A.U. after    1 cycles

      1  O    Isotropic =  -272.7478   Anisotropy =   895.8611

      2  C    Isotropic =   -16.4275   Anisotropy =   135.2981

      3  S    Isotropic =   224.1318   Anisotropy =   266.9032

      4  C    Isotropic =    49.7296   Anisotropy =   162.1090

      5  C    Isotropic =    47.6889   Anisotropy =   161.3866

      6  C    Isotropic =    50.4970   Anisotropy =   165.0239

      7  C    Isotropic =    45.6439   Anisotropy =   221.5226

      8  C    Isotropic =    45.8881   Anisotropy =   214.6282

      9  C    Isotropic =    51.2797   Anisotropy =   168.2935

     10  C    Isotropic =    52.7899   Anisotropy =   186.2020

     11  C    Isotropic =    52.2787   Anisotropy =   187.9986

     12  C    Isotropic =    52.1973   Anisotropy =   167.5522

     13  C    Isotropic =    41.6557   Anisotropy =   152.2918

     14  C    Isotropic =   134.5806   Anisotropy =    32.6906

     15  C    Isotropic =    15.5185   Anisotropy =    97.7425

     16  O    Isotropic =   124.6857   Anisotropy =   196.2677

     17  O    Isotropic =  -104.6553   Anisotropy =   544.6376

     18  H    Isotropic =    23.6342   Anisotropy =     7.6299

     19  H    Isotropic =    23.3845   Anisotropy =     7.3436

     20  H    Isotropic =    23.3899   Anisotropy =     7.9085

     21  H    Isotropic =    23.7021   Anisotropy =     5.7502

     22  H    Isotropic =    23.6883   Anisotropy =     5.6618

     23  H    Isotropic =    23.4021   Anisotropy =     7.4791

     24  H    Isotropic =    23.0945   Anisotropy =     9.8655

     25  H    Isotropic =    28.7235   Anisotropy =     9.4511

     26  H    Isotropic =    28.5202   Anisotropy =    10.7890

     27  H    Isotropic =    26.1476   Anisotropy =    12.4935

 The electronic state is 1-A.
 Alpha  occ. eigenvalues --  -89.04539 -19.30702 -19.25920 -19.24485 -10.42980
 Alpha  occ. eigenvalues --  -10.41762 -10.34161 -10.32485 -10.32273 -10.32226
 Alpha  occ. eigenvalues --  -10.31907 -10.31575 -10.31479 -10.31102 -10.31073
 Alpha  occ. eigenvalues --  -10.31008 -10.30948  -8.07891  -6.02740  -6.02345
 Alpha  occ. eigenvalues --   -6.01881  -1.22622  -1.17581  -1.13107  -1.00304
 Alpha  occ. eigenvalues --   -0.95657  -0.91199  -0.89562  -0.87963  -0.84871
 Alpha  occ. eigenvalues --   -0.82434  -0.74276  -0.73511  -0.71814  -0.71291
 Alpha  occ. eigenvalues --   -0.65201  -0.62612  -0.61775  -0.60810  -0.60115
 Alpha  occ. eigenvalues --   -0.58734  -0.57034  -0.55647  -0.54930  -0.54782
 Alpha  occ. eigenvalues --   -0.53142  -0.52437  -0.51922  -0.51854  -0.50805
 Alpha  occ. eigenvalues --   -0.49245  -0.48254  -0.47610  -0.46080  -0.44474
 Alpha  occ. eigenvalues --   -0.43535  -0.42394  -0.41877  -0.39319  -0.37715
 Alpha  occ. eigenvalues --   -0.36353  -0.34847  -0.33507  -0.31218
 Alpha virt. eigenvalues --   -0.00825   0.01710   0.04102   0.06163   0.06644
 Alpha virt. eigenvalues --    0.09390   0.11060   0.11813   0.12368   0.12502
 Alpha virt. eigenvalues --    0.13164   0.15212   0.15543   0.15825   0.16350

 Mulliken charges:
               1
     1  O   -0.286500
     2  C    0.155801
     3  S   -0.010575
     4  C    0.107953
     5  C   -0.194804
     6  C   -0.173707
     7  C    0.130735
     8  C    0.196741
     9  C   -0.213286
    10  C   -0.095718
    11  C   -0.105113
    12  C   -0.188721
    13  C   -0.296377
    14  C   -0.189949
    15  C    0.327012
    16  O   -0.390852
    17  O   -0.332310
    18  H    0.143161
    19  H    0.122870
    20  H    0.122255
    21  H    0.128375
    22  H    0.127844
    23  H    0.119973
    24  H    0.136893
    25  H    0.161354
    26  H    0.153071
    27  H    0.343873
 Sum of Mulliken charges =  -0.00000

 Dipole moment (field-independent basis, Debye):
    X=              4.5691    Y=              1.1624    Z=              2.2528  Tot=              5.2252
 Quadrupole moment (field-independent basis, Debye-Ang):
   XX=           -104.2272   YY=           -111.7360   ZZ=            -97.0254
   XY=              0.4861   XZ=             -8.9141   YZ=              2.4028

 ESP charges:
               1
     1  O   -0.429442
     2  C    0.512493
     3  S   -0.221920
     4  C    0.166629
     5  C   -0.062961
     6  C   -0.275885
     7  C    0.178528
     8  C    0.115495
     9  C   -0.182648
    10  C   -0.083082
    11  C   -0.055237
    12  C   -0.213376
    13  C   -0.186895
    14  C   -0.110287
    15  C    0.697275
    16  O   -0.580461
    17  O   -0.550374
    18  H    0.086651
    19  H    0.156125
    20  H    0.123449
    21  H    0.098538
    22  H    0.097253
    23  H    0.119244
    24  H    0.111543
    25  H    0.028181
    26  H    0.039560
    27  H    0.421602
 Sum of ESP charges =   0.00000

 Normal termination of Gaussian 16 at Mon Oct  9 21:25:10 2023.
