 Gaussian 16, Revision C.01,

 ----------------------------------------------------------------------
 # PBEPBE/6-31+G(d,p) denfit int=(grid=ultrafine) empiricaldispersion=G
 D3BJ opt=(CalcFC,recalcfc=50) freq=noraman
 ----------------------------------------------------------------------

 ------------------------------
 90000042_noNi_00000_opt_recalc
 ------------------------------
 Symbolic Z-matrix:
 Charge =  1 Multiplicity = 1

 SCF Done:  E(RPBE-PBE) =  -1521.69410610     A.U. after   17 cycles
 Optimization completed.
    -- Stationary point found.
 Normal termination of Gaussian 16 at Mon Sep 29 08:57:04 2025.

 ----------------------------------------------------------------------
 #N Geom=AllCheck Guess=TCheck SCRF=Check GenChk RPBEPBE/6-31+G(d,p) Fr
 eq
 ----------------------------------------------------------------------

 Structure from the checkpoint file:  "90000042_noNi_00000.chk"
 ------------------------------
 90000042_noNi_00000_opt_recalc
 ------------------------------
 Charge =  1 Multiplicity = 1

 SCF Done:  E(RPBE-PBE) =  -1521.69410610     A.U. after    1 cycles

  Exact polarizability:     207.456       4.070     182.479      -1.188       1.414     159.941
 Approx polarizability:     341.068       1.644     326.356      -1.830      -2.332     316.636

                      1                      2                      3
                      A                      A                      A
 Frequencies --     33.8760                37.4903                56.8280
 Red. masses --      7.9903                 5.4026                 7.6240
 Frc consts  --      0.0054                 0.0045                 0.0145
 IR Inten    --      0.1074                 1.8701                 5.4397

                      4                      5                      6
                      A                      A                      A
 Frequencies --     84.5283               126.8560               170.1645
 Red. masses --      4.8978                 5.7270                 3.3775
 Frc consts  --      0.0206                 0.0543                 0.0576
 IR Inten    --      0.3549                 9.0422                20.9309

                      7                      8                      9
                      A                      A                      A
 Frequencies --    196.6515               208.1244               230.5759
 Red. masses --      3.0239                 1.8442                 3.0063
 Frc consts  --      0.0689                 0.0471                 0.0942
 IR Inten    --      0.6888                38.4486                 1.4623

                     10                     11                     12
                      A                      A                      A
 Frequencies --    236.5251               258.2097               264.9239
 Red. masses --      2.2967                 2.5265                 2.3521
 Frc consts  --      0.0757                 0.0992                 0.0973
 IR Inten    --     11.5370                 0.6086                 0.0615

                     13                     14                     15
                      A                      A                      A
 Frequencies --    286.1382               315.3606               338.0060
 Red. masses --      2.5422                 1.9929                 2.5326
 Frc consts  --      0.1226                 0.1168                 0.1705
 IR Inten    --      1.7821                14.1197                12.7448

                     16                     17                     18
                      A                      A                      A
 Frequencies --    366.8148               384.7083               390.1578
 Red. masses --      3.1464                 3.7205                 3.9776
 Frc consts  --      0.2494                 0.3244                 0.3567
 IR Inten    --      4.1904                 3.6082                 6.8802

                     19                     20                     21
                      A                      A                      A
 Frequencies --    397.2798               421.4046               428.6476
 Red. masses --      3.8591                 4.1053                 2.3506
 Frc consts  --      0.3589                 0.4295                 0.2545
 IR Inten    --      6.6387                 0.6226                 2.2537

                     22                     23                     24
                      A                      A                      A
 Frequencies --    433.1186               435.9792               471.7887
 Red. masses --      4.3720                 2.9558                 3.5199
 Frc consts  --      0.4832                 0.3310                 0.4616
 IR Inten    --      9.8240                 1.8460                17.8253

                     25                     26                     27
                      A                      A                      A
 Frequencies --    507.7054               521.7022               537.5248
 Red. masses --      2.5832                 3.2510                 1.9885
 Frc consts  --      0.3923                 0.5213                 0.3385
 IR Inten    --      1.0429                12.5754                 3.1386

                     28                     29                     30
                      A                      A                      A
 Frequencies --    547.7479               611.0323               633.3492
 Red. masses --      2.9638                 5.3241                 5.2764
 Frc consts  --      0.5239                 1.1712                 1.2470
 IR Inten    --     10.2631                 0.8910                19.6568

                     31                     32                     33
                      A                      A                      A
 Frequencies --    648.4048               665.9805               690.6607
 Red. masses --      4.5884                 5.1337                 3.0874
 Frc consts  --      1.1366                 1.3415                 0.8677
 IR Inten    --      7.5289                 1.4095                33.6929

                     34                     35                     36
                      A                      A                      A
 Frequencies --    710.4034               727.3390               730.2419
 Red. masses --      3.0592                 3.8467                 4.6416
 Frc consts  --      0.9096                 1.1990                 1.4583
 IR Inten    --     45.7343                69.2176               121.5200

                     37                     38                     39
                      A                      A                      A
 Frequencies --    766.2320               789.0800               790.8759
 Red. masses --      1.8424                 2.6183                 2.1482
 Frc consts  --      0.6373                 0.9605                 0.7917
 IR Inten    --     16.0729                32.1702                33.1444

                     40                     41                     42
                      A                      A                      A
 Frequencies --    832.2346               843.2640               877.9247
 Red. masses --      2.3966                 2.9373                 3.5255
 Frc consts  --      0.9780                 1.2306                 1.6010
 IR Inten    --      9.2727                 8.5946                15.4713

                     43                     44                     45
                      A                      A                      A
 Frequencies --    882.1590               891.3941               922.8723
 Red. masses --      1.7236                 1.7566                 2.3391
 Frc consts  --      0.7903                 0.8224                 1.1738
 IR Inten    --     27.6648                 5.8927                30.9589

                     46                     47                     48
                      A                      A                      A
 Frequencies --    954.0328               971.7195              1000.3180
 Red. masses --      2.3543                 2.7201                 2.0462
 Frc consts  --      1.2625                 1.5133                 1.2063
 IR Inten    --      3.4236                27.5594                 7.6635

                     49                     50                     51
                      A                      A                      A
 Frequencies --   1016.8769              1031.5355              1035.9413
 Red. masses --      2.7317                 2.9212                 2.5242
 Frc consts  --      1.6643                 1.8314                 1.5960
 IR Inten    --     18.9947                25.9119                12.7480

                     52                     53                     54
                      A                      A                      A
 Frequencies --   1060.0742              1064.3040              1075.0311
 Red. masses --      2.1523                 1.4038                 1.8781
 Frc consts  --      1.4251                 0.9369                 1.2788
 IR Inten    --     29.2454                25.3943                 3.4231

                     55                     56                     57
                      A                      A                      A
 Frequencies --   1078.8098              1092.4646              1112.4730
 Red. masses --      2.3247                 5.5207                 2.0074
 Frc consts  --      1.5940                 3.8820                 1.4637
 IR Inten    --     20.5433               126.2020                 8.4476

                     58                     59                     60
                      A                      A                      A
 Frequencies --   1125.7554              1147.4941              1174.7704
 Red. masses --      1.7730                 1.3042                 1.0748
 Frc consts  --      1.3238                 1.0118                 0.8739
 IR Inten    --     35.4526                17.2115                 0.3861

                     61                     62                     63
                      A                      A                      A
 Frequencies --   1183.3643              1209.5700              1236.2532
 Red. masses --      1.2634                 1.6793                 1.2195
 Frc consts  --      1.0424                 1.4476                 1.0981
 IR Inten    --     10.6553                19.4827                 4.4485

                     64                     65                     66
                      A                      A                      A
 Frequencies --   1241.7592              1255.9097              1271.4440
 Red. masses --      1.2590                 1.2936                 1.3047
 Frc consts  --      1.1438                 1.2022                 1.2427
 IR Inten    --      6.7613                 1.4764                24.3130

                     67                     68                     69
                      A                      A                      A
 Frequencies --   1275.1904              1293.2912              1301.3882
 Red. masses --      1.2813                 1.3331                 1.3234
 Frc consts  --      1.2276                 1.3138                 1.3205
 IR Inten    --     24.9958                58.7114                15.6197

                     70                     71                     72
                      A                      A                      A
 Frequencies --   1301.8581              1302.7440              1312.5207
 Red. masses --      1.4430                 1.5369                 1.7492
 Frc consts  --      1.4409                 1.5368                 1.7754
 IR Inten    --     17.8846                57.4415                25.0525

                     73                     74                     75
                      A                      A                      A
 Frequencies --   1318.0940              1323.1797              1337.0348
 Red. masses --      2.2089                 1.3178                 1.2314
 Frc consts  --      2.2611                 1.3594                 1.2970
 IR Inten    --    200.8840                10.5049                 4.6845

                     76                     77                     78
                      A                      A                      A
 Frequencies --   1340.8406              1345.5698              1354.2538
 Red. masses --      1.2449                 1.3310                 1.3740
 Frc consts  --      1.3187                 1.4199                 1.4847
 IR Inten    --      0.3717                 1.9379                 5.3609

                     79                     80                     81
                      A                      A                      A
 Frequencies --   1375.5393              1386.0639              1407.7126
 Red. masses --      1.3492                 1.2888                 1.0854
 Frc consts  --      1.5040                 1.4589                 1.2673
 IR Inten    --      3.1664                 6.4866                 4.8810

                     82                     83                     84
                      A                      A                      A
 Frequencies --   1407.8872              1411.3080              1418.3247
 Red. masses --      1.0847                 1.0775                 1.1011
 Frc consts  --      1.2668                 1.2644                 1.3051
 IR Inten    --     15.0745                18.0423                12.2690

                     85                     86                     87
                      A                      A                      A
 Frequencies --   1425.0703              1435.8116              1441.2134
 Red. masses --      1.0961                 1.1250                 1.0907
 Frc consts  --      1.3115                 1.3665                 1.3348
 IR Inten    --     19.0001                20.8104                21.6589

                     88                     89                     90
                      A                      A                      A
 Frequencies --   1447.0641              1456.0023              1458.2026
 Red. masses --      1.0971                 1.1260                 1.0768
 Frc consts  --      1.3536                 1.4064                 1.3491
 IR Inten    --     12.6401                 3.9629                 9.2094

                     91                     92                     93
                      A                      A                      A
 Frequencies --   2984.0081              2996.3592              2999.9473
 Red. masses --      1.0601                 1.0573                 1.0603
 Frc consts  --      5.5618                 5.5927                 5.6220
 IR Inten    --      7.4526                15.7428                11.0160

                     94                     95                     96
                      A                      A                      A
 Frequencies --   3003.8112              3004.7204              3005.9919
 Red. masses --      1.0641                 1.0620                 1.0622
 Frc consts  --      5.6569                 5.6489                 5.6552
 IR Inten    --      1.9749                 7.0032                 9.4186

                     97                     98                     99
                      A                      A                      A
 Frequencies --   3006.6778              3007.9776              3010.5926
 Red. masses --      1.0606                 1.0680                 1.0649
 Frc consts  --      5.6490                 5.6932                 5.6869
 IR Inten    --     12.6549                 3.7483                26.5654

                    100                    101                    102
                      A                      A                      A
 Frequencies --   3016.6060              3039.6842              3050.5946
 Red. masses --      1.0617                 1.1044                 1.0951
 Frc consts  --      5.6923                 6.0122                 6.0047
 IR Inten    --      1.1716                 3.9272                 6.8272

                    103                    104                    105
                      A                      A                      A
 Frequencies --   3059.5642              3065.5744              3067.0494
 Red. masses --      1.1056                 1.1120                 1.1071
 Frc consts  --      6.0975                 6.1571                 6.1361
 IR Inten    --      1.5299                 4.4917                 0.5041

                    106                    107                    108
                      A                      A                      A
 Frequencies --   3067.8388              3080.1096              3086.1897
 Red. masses --      1.0985                 1.1057                 1.1054
 Frc consts  --      6.0914                 6.1806                 6.2032
 IR Inten    --      3.3310                 5.4989                 0.1984

                    109                    110                    111
                      A                      A                      A
 Frequencies --   3094.3829              3099.0188              3639.2726
 Red. masses --      1.1035                 1.1075                 1.0664
 Frc consts  --      6.2253                 6.2665                 8.3212
 IR Inten    --     18.9158                14.1942               154.5955

 - Thermochemistry -
 -------------------
 Temperature   298.150 Kelvin.  Pressure   1.00000 Atm.
 Atom     1 has atomic number  8 and mass  15.99491

 Molecular mass:   294.10413 amu.
 Principal axes and moments of inertia in atomic units:
                           1         2         3
     Eigenvalues --  2635.047107839.988718713.87952
           X            0.99991   0.01005  -0.00889
           Y           -0.01021   0.99978  -0.01826
           Z            0.00870   0.01835   0.99979
 This molecule is an asymmetric top.
 Rotational symmetry number  1.
 Warning -- assumption of classical behavior for rotation
           may cause significant error
 Rotational temperatures (Kelvin)      0.03287     0.01105     0.00994
 Rotational constants (GHZ):           0.68490     0.23020     0.20711
 Zero-point vibrational energy     851168.9 (Joules/Mol)
                                  203.43424 (Kcal/Mol)
 Warning -- explicit consideration of  29 degrees of freedom as
           vibrations may cause significant error
 Vibrational temperatures:     48.74    53.94    81.76   121.62   182.52
          (Kelvin)            244.83   282.94   299.44   331.75   340.31
                              371.51   381.17   411.69   453.73   486.32
                              527.76   553.51   561.35   571.60   606.31
                              616.73   623.16   627.28   678.80   730.47
                              750.61   773.38   788.09   879.14   911.25
                              932.91   958.20   993.71  1022.11  1046.48
                             1050.66  1102.44  1135.31  1137.89  1197.40
                             1213.27  1263.14  1269.23  1282.52  1327.81
                             1372.64  1398.09  1439.23  1463.06  1484.15
                             1490.49  1525.21  1531.30  1546.73  1552.17
                             1571.81  1600.60  1619.71  1650.99  1690.23
                             1702.60  1740.30  1778.69  1786.61  1806.97
                             1829.32  1834.71  1860.76  1872.41  1873.08
                             1874.36  1888.42  1896.44  1903.76  1923.69
                             1929.17  1935.97  1948.47  1979.09  1994.24
                             2025.38  2025.64  2030.56  2040.65  2050.36
                             2065.81  2073.58  2082.00  2094.86  2098.03
                             4293.32  4311.09  4316.26  4321.81  4323.12
                             4324.95  4325.94  4327.81  4331.57  4340.22
                             4373.43  4389.13  4402.03  4410.68  4412.80
                             4413.94  4431.59  4440.34  4452.13  4458.80
                             5236.10

 Zero-point correction=                           0.324193 (Hartree/Particle)
 Thermal correction to Energy=                    0.341748
 Thermal correction to Enthalpy=                  0.342692
 Thermal correction to Gibbs Free Energy=         0.279361
 Sum of electronic and zero-point Energies=          -1521.369913
 Sum of electronic and thermal Energies=             -1521.352358
 Sum of electronic and thermal Enthalpies=           -1521.351414
 Sum of electronic and thermal Free Energies=        -1521.414745

                     E (Thermal)             CV                S
                      KCal/Mol        Cal/Mol-Kelvin    Cal/Mol-Kelvin
 Total                  214.450             72.046            133.291
 Electronic               0.000              0.000              0.000
 Translational            0.889              2.981             42.934
 Rotational               0.889              2.981             33.553
 Vibrational            212.672             66.084             56.804
 Vibration     1          0.594              1.983              5.588
 Vibration     2          0.594              1.982              5.387
 Vibration     3          0.596              1.975              4.564
 Vibration     4          0.601              1.960              3.783
 Vibration     5          0.611              1.926              2.993
 Vibration     6          0.625              1.879              2.434
 Vibration     7          0.636              1.845              2.164
 Vibration     8          0.641              1.828              2.060
 Vibration     9          0.652              1.794              1.874
 Vibration    10          0.655              1.785              1.829
 Vibration    11          0.667              1.749              1.674
 Vibration    12          0.671              1.737              1.629
 Vibration    13          0.684              1.699              1.497
 Vibration    14          0.703              1.644              1.334
 Vibration    15          0.718              1.600              1.222
 Vibration    16          0.740              1.541              1.093
 Vibration    17          0.754              1.503              1.021
 Vibration    18          0.758              1.491              1.000
 Vibration    19          0.764              1.476              0.973
 Vibration    20          0.784              1.424              0.887
 Vibration    21          0.790              1.408              0.863
 Vibration    22          0.794              1.398              0.849
 Vibration    23          0.796              1.392              0.839
 Vibration    24          0.829              1.313              0.733
 Vibration    25          0.863              1.233              0.639
 Vibration    26          0.877              1.202              0.606
 Vibration    27          0.893              1.167              0.571
 Vibration    28          0.903              1.145              0.549
 Vibration    29          0.970              1.008              0.431

 Optimization completed.
    -- Stationary point found.
 Normal termination of Gaussian 16 at Mon Sep 29 09:11:56 2025.

 ----------------------------------------------------------------------
 # PBE1PBE/def2TZVP int=(grid=ultrafine) empiricaldispersion=GD3BJ dens
 ity=current output=wfn geom=check guess=read
 ----------------------------------------------------------------------

 ------------------------
 90000042_noNi_00000_sp_1
 ------------------------
 Structure from the checkpoint file:  "90000042_noNi_00000.chk"
 Charge =  1 Multiplicity = 1

 SCF Done:  E(RPBE1PBE) =  -1522.13968131     A.U. after   11 cycles
 Normal termination of Gaussian 16 at Mon Sep 29 09:18:50 2025.

 ----------------------------------------------------------------------
 # PBE1PBE/def2TZVP int=(grid=ultrafine) empiricaldispersion=GD3BJ nmr=
 giao geom=check guess=read
 ----------------------------------------------------------------------

 --------------------------
 90000042_noNi_00000_sp_nmr
 --------------------------
 Structure from the checkpoint file:  "90000042_noNi_00000.chk"
 Charge =  1 Multiplicity = 1

 SCF Done:  E(RPBE1PBE) =  -1522.13968131     A.U. after    1 cycles

      1  O    Isotropic =    49.3643   Anisotropy =    77.9510

      2  S    Isotropic =    86.9786   Anisotropy =   276.5510

      3  C    Isotropic =   124.4935   Anisotropy =    52.2480

      4  C    Isotropic =   160.3881   Anisotropy =    26.5806

      5  C    Isotropic =   165.1028   Anisotropy =    25.0355

      6  C    Isotropic =   120.1781   Anisotropy =    58.5817

      7  N    Isotropic =   207.3080   Anisotropy =    32.2680

      8  C    Isotropic =   100.9592   Anisotropy =    37.0833

      9  N    Isotropic =   202.5298   Anisotropy =    34.7186

     10  C    Isotropic =   110.5576   Anisotropy =    17.2620

     11  N    Isotropic =   200.5558   Anisotropy =    39.1978

     12  C    Isotropic =   132.1410   Anisotropy =    38.5952

     13  P    Isotropic =   391.2217   Anisotropy =    26.1761

     14  C    Isotropic =   125.4018   Anisotropy =    48.7294

     15  C    Isotropic =   133.7295   Anisotropy =    38.5642

     16  C    Isotropic =    96.8312   Anisotropy =    47.1286

     17  O    Isotropic =   101.1448   Anisotropy =   269.4222

     18  O    Isotropic =    57.8073   Anisotropy =    56.4974

     19  H    Isotropic =    28.0024   Anisotropy =     7.1585

     20  H    Isotropic =    28.1866   Anisotropy =     5.9107

     21  H    Isotropic =    29.1315   Anisotropy =     3.4672

     22  H    Isotropic =    29.2331   Anisotropy =     9.8192

     23  H    Isotropic =    29.6050   Anisotropy =    10.2070

     24  H    Isotropic =    28.6688   Anisotropy =     3.7900

     25  H    Isotropic =    29.0512   Anisotropy =     5.4266

     26  H    Isotropic =    28.9163   Anisotropy =     6.7528

     27  H    Isotropic =    27.2567   Anisotropy =     5.4743

     28  H    Isotropic =    25.4940   Anisotropy =     5.5270

     29  H    Isotropic =    27.1681   Anisotropy =     8.3602

     30  H    Isotropic =    26.8440   Anisotropy =     6.6867

     31  H    Isotropic =    27.6189   Anisotropy =     7.9643

     32  H    Isotropic =    27.4269   Anisotropy =     7.5715

     33  H    Isotropic =    27.9175   Anisotropy =     5.1127

     34  H    Isotropic =    25.9368   Anisotropy =     9.8148

     35  H    Isotropic =    27.3073   Anisotropy =     6.4674

     36  H    Isotropic =    27.5672   Anisotropy =     7.4056

     37  H    Isotropic =    27.0516   Anisotropy =     5.8898

     38  H    Isotropic =    26.8879   Anisotropy =     5.5720

     39  H    Isotropic =    25.9319   Anisotropy =    13.3431

 Normal termination of Gaussian 16 at Mon Sep 29 09:31:10 2025.

 ----------------------------------------------------------------------
 # PBE1PBE/def2TZVP int=(grid=ultrafine) empiricaldispersion=GD3BJ prop
 =efg geom=check guess=read
 ----------------------------------------------------------------------

 --------------------------
 90000042_noNi_00000_sp_efg
 --------------------------
 Structure from the checkpoint file:  "90000042_noNi_00000.chk"
 Charge =  1 Multiplicity = 1

 SCF Done:  E(RPBE1PBE) =  -1522.13968131     A.U. after    1 cycles

 ----------------------------------------------------------------------
 # PBE1PBE/def2TZVP int=(grid=ultrafine) empiricaldispersion=GD3BJ pop=
 nbo7 geom=check guess=read
 ----------------------------------------------------------------------

 --------------------------
 90000042_noNi_00000_sp_nbo
 --------------------------
 Structure from the checkpoint file:  "90000042_noNi_00000.chk"
 Charge =  1 Multiplicity = 1

 SCF Done:  E(RPBE1PBE) =  -1522.13968131     A.U. after    3 cycles
 Normal termination of Gaussian 16 at Mon Sep 29 09:34:18 2025.
 SCF Done:  E(RPBE1PBE) =  -1522.22554119     A.U. after   11 cycles
 Normal termination of Gaussian 16 at Mon Sep 29 09:41:08 2025.
 SCF Done:  E(UPBE1PBE) =  -1521.71138632     A.U. after   22 cycles

 The electronic state is 2-A.
 Alpha  occ. eigenvalues --  -89.46211 -77.52989 -19.48207 -19.44545 -19.43164
 Alpha  occ. eigenvalues --  -14.82529 -14.79174 -14.77170 -10.62237 -10.62082
 Alpha  occ. eigenvalues --  -10.60901 -10.57839 -10.57712 -10.57311 -10.56814
 Alpha  occ. eigenvalues --  -10.49859 -10.49826 -10.48599  -8.40774  -6.92368
 Alpha  occ. eigenvalues --   -6.34610  -6.34297  -6.34237  -5.06117  -5.05882
 Alpha  occ. eigenvalues --   -5.05424  -1.38328  -1.37782  -1.30648  -1.29252
 Alpha  occ. eigenvalues --   -1.27811  -1.25613  -1.11341  -1.10222  -1.06967
 Alpha  occ. eigenvalues --   -1.06488  -1.05325  -1.00725  -0.99468  -0.96221
 Alpha  occ. eigenvalues --   -0.94856  -0.90408  -0.88917  -0.86664  -0.85617
 Alpha  occ. eigenvalues --   -0.83898  -0.83550  -0.82404  -0.80472  -0.79348
 Alpha  occ. eigenvalues --   -0.78943  -0.77624  -0.75943  -0.74635  -0.73585
 Alpha  occ. eigenvalues --   -0.73128  -0.72780  -0.72095  -0.71431  -0.71194
 Alpha  occ. eigenvalues --   -0.70513  -0.70407  -0.70129  -0.69406  -0.68914
 Alpha  occ. eigenvalues --   -0.67371  -0.66194  -0.63752  -0.62779  -0.62104
 Alpha  occ. eigenvalues --   -0.60939  -0.60705  -0.59024  -0.57944  -0.56747
 Alpha  occ. eigenvalues --   -0.56082  -0.55006  -0.54543
 Alpha virt. eigenvalues --   -0.26979  -0.26440  -0.25082  -0.24074  -0.22368
 Alpha virt. eigenvalues --   -0.21755  -0.20781  -0.19977  -0.19460  -0.19151
 Alpha virt. eigenvalues --   -0.18379  -0.17985  -0.17261  -0.16682  -0.16355

  Beta  occ. eigenvalues --  -89.46212 -77.52909 -19.48207 -19.44531 -19.43157
  Beta  occ. eigenvalues --  -14.82319 -14.78112 -14.76400 -10.62281 -10.62134
  Beta  occ. eigenvalues --  -10.60929 -10.57793 -10.57719 -10.57296 -10.56825
  Beta  occ. eigenvalues --  -10.49858 -10.49818 -10.48599  -8.40774  -6.92286
  Beta  occ. eigenvalues --   -6.34611  -6.34297  -6.34238  -5.05843  -5.05823
  Beta  occ. eigenvalues --   -5.05377  -1.37777  -1.37360  -1.29730  -1.27809
  Beta  occ. eigenvalues --   -1.27672  -1.25591  -1.11032  -1.10186  -1.06739
  Beta  occ. eigenvalues --   -1.06186  -1.05239  -1.00529  -0.98625  -0.95546
  Beta  occ. eigenvalues --   -0.94624  -0.90130  -0.88423  -0.86545  -0.85086
  Beta  occ. eigenvalues --   -0.83493  -0.83215  -0.82183  -0.80210  -0.78559
  Beta  occ. eigenvalues --   -0.78444  -0.77471  -0.75665  -0.73177  -0.73110
  Beta  occ. eigenvalues --   -0.72738  -0.72582  -0.71920  -0.71180  -0.70802
  Beta  occ. eigenvalues --   -0.70232  -0.70055  -0.69805  -0.68012  -0.67702
  Beta  occ. eigenvalues --   -0.67279  -0.65973  -0.63084  -0.62705  -0.61756
  Beta  occ. eigenvalues --   -0.60695  -0.60387  -0.57939  -0.56735  -0.55049
  Beta  occ. eigenvalues --   -0.54577  -0.54487
  Beta virt. eigenvalues --   -0.48680  -0.26751  -0.25829  -0.24939  -0.23962
  Beta virt. eigenvalues --   -0.22258  -0.21435  -0.20498  -0.19862  -0.19414
  Beta virt. eigenvalues --   -0.18946  -0.18080  -0.17932  -0.17124  -0.16509

 Mulliken charges and spin densities:
               1          2
     1  O   -0.348308   0.002597
     2  S    0.800262  -0.000691
     3  C   -0.264115   0.000337
     4  C   -0.272215  -0.000301
     5  C   -0.322645   0.003825
     6  C   -0.218947  -0.005105
     7  N    0.139409   0.076026
     8  C   -0.320462  -0.022951
     9  N    0.100216   0.437666
    10  C   -0.222912  -0.029254
    11  N    0.063912   0.321229
    12  C   -0.288409  -0.000655
    13  P    0.272198   0.126992
    14  C   -0.352862  -0.007067
    15  C   -0.276338   0.013474
    16  C   -0.251419  -0.019084
    17  O   -0.432038  -0.000046
    18  O   -0.487905   0.003834
    19  H    0.205626   0.000020
    20  H    0.199545  -0.000015
    21  H    0.161463   0.000362
    22  H    0.189030  -0.000024
    23  H    0.194390   0.000046
    24  H    0.180913  -0.000037
    25  H    0.204782   0.004823
    26  H    0.199157  -0.000279
    27  H    0.232674   0.003160
    28  H    0.274095   0.007734
    29  H    0.219816   0.000409
    30  H    0.238864  -0.000215
    31  H    0.224665   0.024483
    32  H    0.223092   0.001594
    33  H    0.223876   0.011395
    34  H    0.197933   0.008163
    35  H    0.237188   0.023210
    36  H    0.226084   0.003545
    37  H    0.229760   0.001017
    38  H    0.236948   0.009799
    39  H    0.382674  -0.000014
 Sum of Mulliken charges =   2.00000   1.00000

 Dipole moment (field-independent basis, Debye):
    X=            -11.4835    Y=              4.6759    Z=             -1.8528  Tot=             12.5367
 Quadrupole moment (field-independent basis, Debye-Ang):
   XX=            -44.7732   YY=            -84.9308   ZZ=            -99.5127
   XY=             10.4798   XZ=            -12.3627   YZ=              2.1430

 Summary of Natural Population Analysis:

                                     Natural Population
             Natural    ---------------------------------------------
  Atom No    Charge        Core      Valence    Rydberg      Total
 --------------------------------------------------------------------
    O  1   -0.41102      1.00000     3.39424    0.01679     4.41102
    S  2    1.13160      4.99999     1.76001    0.10841     6.86840
    C  3   -0.32844      1.00000     2.31673    0.01171     3.32844
    C  4   -0.21742      0.99999     2.21088    0.00655     3.21742
    C  5   -0.22706      0.99999     2.22075    0.00632     3.22706
    C  6   -0.11882      0.99999     2.11059    0.00824     3.11882
    N  7   -0.05443      1.00000     2.54694    0.00749     3.55443
    C  8   -0.07372      0.99999     2.06377    0.00996     3.07372
    N  9    0.14974      1.00000     2.33922    0.01104     3.35026
    C 10   -0.07903      0.99999     2.07026    0.00878     3.07903
    N 11    0.05532      1.00000     2.43295    0.01173     3.44468
    C 12   -0.27420      0.99999     2.26371    0.01050     3.27420
    P 13    0.50285      4.99997     1.98412    0.01306     6.99715
    C 14   -0.29490      0.99999     2.28253    0.01238     3.29490
    C 15   -0.26238      0.99999     2.25182    0.01056     3.26238
    C 16   -0.05820      0.99999     2.04875    0.00946     3.05820
    O 17   -0.44616      1.00000     3.43543    0.01074     4.44616
    O 18   -0.48129      1.00000     3.46723    0.01406     4.48129
    H 19    0.14164      0.00000     0.35779    0.00057     0.35836
    H 20    0.13603      0.00000     0.36333    0.00064     0.36397
    H 21    0.11001      0.00000     0.38906    0.00094     0.38999
    H 22    0.13046      0.00000     0.36883    0.00072     0.36954
    H 23    0.13429      0.00000     0.36507    0.00064     0.36571
    H 24    0.12202      0.00000     0.37702    0.00096     0.37798
    H 25    0.12584      0.00000     0.37321    0.00095     0.37416
    H 26    0.12064      0.00000     0.37840    0.00096     0.37936
    H 27    0.12795      0.00000     0.37095    0.00109     0.37205
    H 28    0.15309      0.00000     0.34576    0.00115     0.34691
    H 29    0.12612      0.00000     0.37294    0.00094     0.37388
    H 30    0.13020      0.00000     0.36887    0.00093     0.36980
    H 31    0.15497      0.00000     0.34443    0.00061     0.34503
    H 32    0.14072      0.00000     0.35853    0.00075     0.35928
    H 33    0.14212      0.00000     0.35711    0.00077     0.35788
    H 34    0.15893      0.00000     0.33954    0.00152     0.34107
    H 35    0.16169      0.00000     0.33768    0.00063     0.33831
    H 36    0.14267      0.00000     0.35659    0.00074     0.35733
    H 37    0.12579      0.00000     0.37303    0.00117     0.37421
    H 38    0.13681      0.00000     0.36230    0.00089     0.36319
    H 39    0.26558      0.00000     0.23339    0.00103     0.23442
 ====================================================================
 * Total *  1.50000     25.99989    50.69375    0.30636    77.00000

 Normal termination of Gaussian 16 at Mon Sep 29 10:01:18 2025.
 Gaussian 16:  ES64L-G16RevC.01  3-Jul-2019

                         Standard orientation:
 ---------------------------------------------------------------------
 Center     Atomic      Atomic             Coordinates (Angstroms)
 Number     Number       Type             X           Y           Z
 ---------------------------------------------------------------------
      1          8           0        4.400871   -1.246900    0.729860
      2         16           0        3.152221   -0.639060    0.250120
      3          6           0        3.434821    1.101230   -0.216370
      4          6           0        2.180911    1.776650   -0.785870
      5          6           0        1.161061    2.187810    0.301860
      6          6           0       -0.301579    2.308380   -0.149510
      7          7           0       -1.146039    1.052990   -0.063620
      8          6           0       -1.221729    0.511060    1.414270
      9          7           0       -2.189629   -0.522909    1.559880
     10          6           0       -3.521289   -0.056499    1.148800
     11          7           0       -3.545559    0.383721   -0.257530
     12          6           0       -3.359489   -0.738069   -1.198000
     13         15           0       -1.699209   -1.622769   -0.999700
     14          6           0       -0.653769   -0.051150   -0.981590
     15          6           0       -1.794809   -1.774919    0.886270
     16          6           0       -2.616629    1.441411   -0.455400
     17          8           0        2.769251   -1.289040   -1.240420
     18          8           0        1.890171   -0.725080    1.022330
     19          1           0        4.263801    1.067790   -0.939900
     20          1           0        3.801001    1.581830    0.707050
     21          1           0        1.736111    1.115760   -1.547280
     22          1           0        2.514091    2.674220   -1.335060
     23          1           0        1.447151    3.179120    0.692730
     24          1           0        1.230991    1.503620    1.160830
     25          1           0       -0.376259    2.656670   -1.195400
     26          1           0       -0.825509    3.046390    0.481490
     27          1           0       -1.487679    1.390781    2.024190
     28          1           0       -0.215189    0.146930    1.662060
     29          1           0       -3.813679    0.792921    1.789530
     30          1           0       -4.249599   -0.869569    1.284780
     31          1           0       -3.453339   -0.363309   -2.231730
     32          1           0       -4.174659   -1.464759   -1.046240
     33          1           0       -0.595659    0.370050   -1.999760
     34          1           0        0.354651   -0.331470   -0.646900
     35          1           0       -0.811319   -2.097230    1.267180
     36          1           0       -2.522129   -2.562219    1.144130
     37          1           0       -2.866859    2.300651    0.189150
     38          1           0       -2.575949    1.756531   -1.511090
     39          1           0        3.513871   -1.872100   -1.508190
 ---------------------------------------------------------------------

 SCF Done:  E(UPBE1PBE) =  -1522.20285401     A.U. after  129 cycles
 Error termination via Lnk1e in /uufs/chpc.utah.edu/sys/installdir/gaussian16/C01/AVX/g16/l502.exe at Mon Sep 29 11:48:47 2025.
