 Gaussian 16, Revision C.01,
 Gaussian 16:  ES64L-G16RevC.01  3-Jul-2019

 ------------------------------------------------------
 #N OPT FREQ=NORAMAN Integral(Ultrafine) wB97XD def2SVP
 ------------------------------------------------------

 -----------------
 aldehyde22_conf-1
 -----------------
 Symbolic Z-matrix:
 Charge =  0 Multiplicity = 1

 SCF Done:  E(RwB97XD) =  -681.900799127     A.U. after   16 cycles
 SCF Done:  E(RwB97XD) =  -681.903607478     A.U. after   14 cycles
 SCF Done:  E(RwB97XD) =  -681.903740907     A.U. after   13 cycles
 SCF Done:  E(RwB97XD) =  -681.903759737     A.U. after   10 cycles
 SCF Done:  E(RwB97XD) =  -681.903757986     A.U. after   10 cycles
 SCF Done:  E(RwB97XD) =  -681.903760549     A.U. after   10 cycles
 SCF Done:  E(RwB97XD) =  -681.903761303     A.U. after    9 cycles
 Optimization completed.
    -- Stationary point found.

 The electronic state is 1-A.
 Alpha  occ. eigenvalues --  -24.85967 -24.85390 -24.85379 -19.27076 -10.55666
 Alpha  occ. eigenvalues --  -10.40399 -10.34871 -10.34140 -10.34042 -10.33852
 Alpha  occ. eigenvalues --  -10.33552 -10.33509  -1.41797  -1.32352  -1.31852
 Alpha  occ. eigenvalues --   -1.15579  -0.99412  -0.90788  -0.87565  -0.81795
 Alpha  occ. eigenvalues --   -0.75923  -0.73967  -0.69646  -0.69542  -0.68749
 Alpha  occ. eigenvalues --   -0.67724  -0.61524  -0.58095  -0.57088  -0.57069
 Alpha  occ. eigenvalues --   -0.56189  -0.54427  -0.53999  -0.53408  -0.52241
 Alpha  occ. eigenvalues --   -0.51932  -0.51800  -0.50773  -0.47592  -0.46609
 Alpha  occ. eigenvalues --   -0.45869  -0.36854  -0.36426  -0.35846
 Alpha virt. eigenvalues --   -0.02037   0.02929   0.08620   0.13697   0.15334
 Alpha virt. eigenvalues --    0.18434   0.20360   0.20562   0.21088   0.24084
 Alpha virt. eigenvalues --    0.28658   0.29402   0.29418   0.30211   0.32865

 Mulliken charges:
               1
     1  O   -0.202237
     2  C    0.202952
     3  C   -0.075431
     4  C    0.002436
     5  C   -0.001282
     6  C   -0.158498
     7  C    0.602470
     8  F   -0.181060
     9  F   -0.181055
    10  F   -0.172853
    11  C    0.003050
    12  C   -0.011436
    13  H    0.010784
    14  H    0.045285
    15  H    0.043013
    16  H    0.043300
    17  H    0.030562
 Sum of Mulliken charges =  -0.00000

 Dipole moment (field-independent basis, Debye):
    X=             -0.0313    Y=             -1.5938    Z=             -0.0001  Tot=              1.5941
 Quadrupole moment (field-independent basis, Debye-Ang):
   XX=            -81.6086   YY=            -59.6687   ZZ=            -68.3241
   XY=             -6.6085   XZ=              0.0001   YZ=             -0.0000

 Normal termination of Gaussian 16 at Fri Sep 22 14:09:14 2023.

 --------------------------------------------------------------------
 #N Geom=AllCheck Guess=TCheck SCRF=Check GenChk RwB97XD/def2SVP Freq
 --------------------------------------------------------------------

 Structure from the checkpoint file:  "aldehyde22_conf-1.chk"
 -----------------
 aldehyde22_conf-1
 -----------------
 Charge =  0 Multiplicity = 1

                         Standard orientation:
 ---------------------------------------------------------------------
 Center     Atomic      Atomic             Coordinates (Angstroms)
 Number     Number       Type             X           Y           Z
 ---------------------------------------------------------------------
      1          8           0        4.293007    0.616313    0.000009
      2          6           0        3.546400   -0.326668    0.000011
      3          6           0        2.061305   -0.216889   -0.000000
      4          6           0        1.456335    1.043078   -0.000008
      5          6           0        0.070042    1.149540   -0.000021
      6          6           0       -0.711563   -0.007035   -0.000025
      7          6           0       -2.219762    0.075012    0.000002
      8          9           0       -2.735240   -0.531391   -1.074418
      9          9           0       -2.735167   -0.530788    1.074794
     10          9           0       -2.657630    1.334817   -0.000335
     11          6           0       -0.113595   -1.269703   -0.000018
     12          6           0        1.272537   -1.371412   -0.000005
     13          1           0        3.938044   -1.375079    0.000005
     14          1           0        2.092774    1.930229   -0.000007
     15          1           0       -0.408835    2.129175   -0.000031
     16          1           0       -0.732974   -2.168581   -0.000029
     17          1           0        1.749087   -2.355530   -0.000002
 ---------------------------------------------------------------------
