 Gaussian 16, Revision A.03,
 Gaussian 16:  ES64L-G16RevA.03 25-Dec-2016

 ---------------------------------------------------------------
 # b3lyp/6-31G(d,p) emp=GD3 opt SCRF=(Solvent=acetonitrile) freq
 ---------------------------------------------------------------

 -------------------------------
 Generated by prepareg16files.py
 -------------------------------
 Symbolic Z-matrix:
 Charge =  0 Multiplicity = 1

 SCF Done:  E(RB3LYP) =  -465.494476850     A.U. after   12 cycles
 SCF Done:  E(RB3LYP) =  -465.494876041     A.U. after    9 cycles
 SCF Done:  E(RB3LYP) =  -465.494912952     A.U. after    8 cycles
 SCF Done:  E(RB3LYP) =  -465.494917542     A.U. after    8 cycles
 SCF Done:  E(RB3LYP) =  -465.494918153     A.U. after    7 cycles
 SCF Done:  E(RB3LYP) =  -465.494918501     A.U. after    7 cycles
 SCF Done:  E(RB3LYP) =  -465.494918701     A.U. after    7 cycles
 SCF Done:  E(RB3LYP) =  -465.494918767     A.U. after    7 cycles
 Optimization completed.
    -- Stationary point found.
 Normal termination of Gaussian 16 at Mon Jun 13 18:13:39 2022.

 ----------------------------------------------------------------------
 #N Geom=AllCheck Guess=TCheck SCRF=Check GenChk RB3LYP/6-31G(d,p) Freq
 ----------------------------------------------------------------------

 Structure from the checkpoint file:  "IH4_5_aniccx.chk"
 -------------------------------
 Generated by prepareg16files.py
 -------------------------------
 Charge =  0 Multiplicity = 1

                         Standard orientation:
 ---------------------------------------------------------------------
 Center     Atomic      Atomic             Coordinates (Angstroms)
 Number     Number       Type             X           Y           Z
 ---------------------------------------------------------------------
      1          6           0        2.676149    0.548444    1.172488
      2          6           0       -0.242983    1.263709   -0.394381
      3          6           0       -0.013507   -1.068882    0.164231
      4          6           0       -1.631799    1.165537   -0.290816
      5          6           0       -1.399580   -1.189828    0.268986
      6          6           0        2.096751    0.300725   -0.229208
      7          6           0        0.583107    0.155680   -0.167288
      8          6           0       -2.184062   -0.065396    0.040455
      9          9           0       -3.532423   -0.174912    0.138013
     10          7           0        2.705696   -0.920089   -0.784802
     11          1           0        2.240732    1.448132    1.616677
     12          1           0        3.762879    0.682237    1.124737
     13          1           0        2.460032   -0.303286    1.825183
     14          1           0        0.202361    2.219383   -0.658318
     15          1           0        0.619903   -1.933517    0.329826
     16          1           0       -2.279796    2.016894   -0.468227
     17          1           0       -1.872881   -2.132722    0.521086
     18          1           0        2.314896    1.193094   -0.840448
     19          1           0        3.713646   -0.787691   -0.842653
     20          1           0        2.385702   -1.047623   -1.743178
 ---------------------------------------------------------------------

 SCF Done:  E(RB3LYP) =  -465.494918767     A.U. after    1 cycles

 The electronic state is 1-A.
 Alpha  occ. eigenvalues --  -24.70423 -14.31311 -10.26972 -10.21816 -10.19578
 Alpha  occ. eigenvalues --  -10.19499 -10.19464 -10.19389 -10.19260 -10.17448
 Alpha  occ. eigenvalues --   -1.21413  -0.88964  -0.85430  -0.76204  -0.75278
 Alpha  occ. eigenvalues --   -0.71533  -0.62766  -0.62088  -0.57275  -0.53713
 Alpha  occ. eigenvalues --   -0.49681  -0.48813  -0.46022  -0.45713  -0.44884
 Alpha  occ. eigenvalues --   -0.43600  -0.42492  -0.41039  -0.39084  -0.36720
 Alpha  occ. eigenvalues --   -0.36552  -0.34782  -0.34032  -0.33663  -0.25827
 Alpha  occ. eigenvalues --   -0.24634  -0.23328
 Alpha virt. eigenvalues --   -0.00953   0.00234   0.08508   0.09995   0.13152
 Alpha virt. eigenvalues --    0.13948   0.14704   0.15525   0.16850   0.17495
 Alpha virt. eigenvalues --    0.17763   0.19056   0.19940   0.20750   0.23231

 Mulliken charges:
               1
     1  C   -0.305852
     2  C   -0.140380
     3  C   -0.119612
     4  C   -0.149527
     5  C   -0.151035
     6  C    0.006473
     7  C    0.104769
     8  C    0.338102
     9  F   -0.312133
    10  N   -0.629728
    11  H    0.110099
    12  H    0.107164
    13  H    0.111135
    14  H    0.104054
    15  H    0.107432
    16  H    0.113742
    17  H    0.112880
    18  H    0.086725
    19  H    0.253267
    20  H    0.252426
 Sum of Mulliken charges =  -0.00000

 Dipole moment (field-independent basis, Debye):
    X=              2.6444    Y=              1.2637    Z=             -1.1355  Tot=              3.1432
 Quadrupole moment (field-independent basis, Debye-Ang):
   XX=            -57.6546   YY=            -55.5410   ZZ=            -57.6558
   XY=              1.7358   XZ=             -2.9278   YZ=             -0.7987

  Exact polarizability: 147.003  -0.640 121.658  -2.376 -11.603  66.055
 Approx polarizability: 172.077  -0.880 151.148  -4.172 -16.837  77.070

                      1                      2                      3
                      A                      A                      A
 Frequencies --     32.4969                99.4399               198.7373
 Red. masses --      3.2531                 4.5201                 3.1041
 Frc consts  --      0.0020                 0.0263                 0.0722
 IR Inten    --      1.1532                 0.4643                 1.3971

                      4                      5                      6
                      A                      A                      A
 Frequencies --    234.1347               264.2778               297.4252
 Red. masses --      3.9572                 1.1872                 1.3136
 Frc consts  --      0.1278                 0.0489                 0.0685
 IR Inten    --      4.2961                25.2912                27.3833

                      7                      8                      9
                      A                      A                      A
 Frequencies --    343.2455               404.9856               426.7445
 Red. masses --      2.5302                 5.2667                 3.1392
 Frc consts  --      0.1756                 0.5089                 0.3368
 IR Inten    --     28.9400                 7.3533                 0.1947

                     10                     11                     12
                      A                      A                      A
 Frequencies --    430.2679               468.0300               551.6208
 Red. masses --      4.3313                 3.4212                 2.6713
 Frc consts  --      0.4724                 0.4415                 0.4789
 IR Inten    --      1.3148                 8.8896                16.7486

                     13                     14                     15
                      A                      A                      A
 Frequencies --    566.9366               646.8482               718.9809
 Red. masses --      3.6067                 7.1375                 3.5185
 Frc consts  --      0.6830                 1.7595                 1.0716
 IR Inten    --     29.8168                 0.4929                12.7067

                     16                     17                     18
                      A                      A                      A
 Frequencies --    726.2636               831.1188               842.9708
 Red. masses --      3.8351                 1.2592                 3.5592
 Frc consts  --      1.1918                 0.5125                 1.4901
 IR Inten    --      7.9373                 3.3457                38.9692

                     19                     20                     21
                      A                      A                      A
 Frequencies --    846.8994               892.5342               935.9803
 Red. masses --      1.8719                 1.6358                 1.8124
 Frc consts  --      0.7911                 0.7678                 0.9355
 IR Inten    --     53.7478               118.1690                46.2767

                     22                     23                     24
                      A                      A                      A
 Frequencies --    954.7055               974.9943              1012.3328
 Red. masses --      1.2998                 1.3199                 1.5236
 Frc consts  --      0.6980                 0.7392                 0.9200
 IR Inten    --      6.9388                 0.7984                 6.4675

                     25                     26                     27
                      A                      A                      A
 Frequencies --   1029.0314              1081.2403              1117.0900
 Red. masses --      2.5434                 1.6498                 1.5786
 Frc consts  --      1.5868                 1.1364                 1.1607
 IR Inten    --      7.8178                27.7027                17.4016

                     28                     29                     30
                      A                      A                      A
 Frequencies --   1137.0025              1181.1648              1204.5443
 Red. masses --      1.7816                 1.1613                 2.1661
 Frc consts  --      1.3570                 0.9546                 1.8518
 IR Inten    --     15.3673                20.7376                 4.9724

                     31                     32                     33
                      A                      A                      A
 Frequencies --   1256.6528              1267.2340              1319.4769
 Red. masses --      2.6405                 1.7316                 1.3306
 Frc consts  --      2.4568                 1.6383                 1.3649
 IR Inten    --    118.2011                37.6248                11.0108

                     34                     35                     36
                      A                      A                      A
 Frequencies --   1346.1674              1375.8407              1405.8598
 Red. masses --      4.3262                 1.4036                 1.8496
 Frc consts  --      4.6191                 1.5655                 2.1538
 IR Inten    --      8.1147                13.7349                28.9975

                     37                     38                     39
                      A                      A                      A
 Frequencies --   1415.5261              1456.6973              1500.1470
 Red. masses --      1.2497                 2.3827                 1.0618
 Frc consts  --      1.4754                 2.9789                 1.4078
 IR Inten    --     10.0502                 6.7760                 4.2602

                     40                     41                     42
                      A                      A                      A
 Frequencies --   1501.7509              1548.3877              1644.7961
 Red. masses --      1.0656                 2.7030                 4.9594
 Frc consts  --      1.4159                 3.8182                 7.9050
 IR Inten    --      4.8631               143.3488                18.0348

                     43                     44                     45
                      A                      A                      A
 Frequencies --   1655.5455              1662.0148              2955.5812
 Red. masses --      1.6417                 2.4333                 1.0830
 Frc consts  --      2.6511                 3.9601                 5.5741
 IR Inten    --     66.0026                12.0135               101.3722

                     46                     47                     48
                      A                      A                      A
 Frequencies --   3037.8225              3110.9621              3127.7999
 Red. masses --      1.0357                 1.1018                 1.1032
 Frc consts  --      5.6315                 6.2826                 6.3592
 IR Inten    --     39.0553                56.3287                38.3275

                     49                     50                     51
                      A                      A                      A
 Frequencies --   3181.4022              3207.0733              3216.5718
 Red. masses --      1.0895                 1.0883                 1.0941
 Frc consts  --      6.4969                 6.5949                 6.6697
 IR Inten    --     17.3196                 4.8749                 9.6386

                     52                     53                     54
                      A                      A                      A
 Frequencies --   3220.4101              3482.1812              3565.1041
 Red. masses --      1.0948                 1.0505                 1.0925
 Frc consts  --      6.6899                 7.5050                 8.1809
 IR Inten    --      7.4450                 0.8894                 0.0500

 - Thermochemistry -
 -------------------
 Temperature   298.150 Kelvin.  Pressure   1.00000 Atm.
 Atom     1 has atomic number  6 and mass  12.00000

 Molecular mass:   139.07973 amu.
 Principal axes and moments of inertia in atomic units:
                           1         2         3
     Eigenvalues --   536.330672487.962712714.95435
           X            0.99998   0.00114   0.00628
           Y           -0.00113   1.00000  -0.00122
           Z           -0.00628   0.00122   0.99998
 This molecule is an asymmetric top.
 Rotational symmetry number  1.
 Warning -- assumption of classical behavior for rotation
           may cause significant error
 Rotational temperatures (Kelvin)      0.16149     0.03481     0.03190
 Rotational constants (GHZ):           3.36498     0.72539     0.66474
 Zero-point vibrational energy     436116.9 (Joules/Mol)
                                  104.23444 (Kcal/Mol)
 Warning -- explicit consideration of  13 degrees of freedom as
           vibrations may cause significant error
 Vibrational temperatures:     46.76   143.07   285.94   336.87   380.24
          (Kelvin)            427.93   493.85   582.68   613.99   619.06
                              673.39   793.66   815.70   930.67  1034.45
                             1044.93  1195.79  1212.85  1218.50  1284.16
                             1346.67  1373.61  1402.80  1456.52  1480.55
                             1555.66  1607.24  1635.89  1699.43  1733.07
                             1808.04  1823.27  1898.43  1936.83  1979.53
                             2022.72  2036.63  2095.86  2158.38  2160.68
                             2227.78  2366.49  2381.96  2391.27  4252.42
                             4370.75  4475.98  4500.21  4577.33  4614.26
                             4627.93  4633.45  5010.08  5129.39

 Zero-point correction=                           0.166108 (Hartree/Particle)
 Thermal correction to Energy=                    0.175369
 Thermal correction to Enthalpy=                  0.176313
 Thermal correction to Gibbs Free Energy=         0.131249
 Sum of electronic and zero-point Energies=           -465.328811
 Sum of electronic and thermal Energies=              -465.319550
 Sum of electronic and thermal Enthalpies=            -465.318606
 Sum of electronic and thermal Free Energies=         -465.363669

                     E (Thermal)             CV                S
                      KCal/Mol        Cal/Mol-Kelvin    Cal/Mol-Kelvin
 Total                  110.046             35.724             94.845
 Electronic               0.000              0.000              0.000
 Translational            0.889              2.981             40.701
 Rotational               0.889              2.981             29.673
 Vibrational            108.268             29.762             24.471
 Vibration     1          0.594              1.983              5.671
 Vibration     2          0.604              1.950              3.465
 Vibration     3          0.637              1.842              2.145
 Vibration     4          0.654              1.789              1.847
 Vibration     5          0.671              1.738              1.633
 Vibration     6          0.691              1.679              1.431
 Vibration     7          0.722              1.589              1.197
 Vibration     8          0.770              1.459              0.945
 Vibration     9          0.788              1.412              0.869
 Vibration    10          0.791              1.404              0.858
 Vibration    11          0.825              1.321              0.743
 Vibration    12          0.907              1.136              0.541
 Vibration    13          0.923              1.103              0.510

 Optimization completed.
    -- Stationary point found.
 Normal termination of Gaussian 16 at Mon Jun 13 18:14:10 2022.
